BEGIN_CFG
 Size
    54
 Supercell
         8.700000      0.000000      0.000000
         0.000000      8.700000      0.000000
         0.000000      0.000000      8.700000
 AtomData:  id type       cartes_x      cartes_y      cartes_z           fx          fy          fz      magmom_x     magmom_y     magmom_z
             1    0       4.394130      7.244690      4.347090    -0.417995    0.555396   -0.437382     -2.342000     0.000000     0.000000
             2    0       4.363440      4.253840      7.167780     0.802881    0.295610    0.423177     -2.337000     0.000000     0.000000
             3    0       1.438750      4.444920      7.180640     0.278617   -0.664627   -0.003146     -2.615000     0.000000     0.000000
             4    0       2.882570      0.185960      8.671990     0.299465   -1.135977   -0.220655     -2.345000     0.000000     0.000000
             5    0       3.069850      5.772390      5.848510    -0.801977    0.256567   -0.275826     -2.416000     0.000000     0.000000
             6    0       5.885380      5.935220      2.899450    -0.616211   -0.295002    0.290055     -2.232000     0.000000     0.000000
             7    0       1.259650      7.326690      7.422630     1.835493   -0.570458   -0.464975     -2.315000     0.000000     0.000000
             8    0       8.696140      6.001630      5.805260     0.758226   -1.490500   -0.207213     -2.037000     0.000000     0.000000
             9    0       7.326160      7.302770      4.401960    -0.365662    0.234149   -0.863534     -1.804000     0.000000     0.000000
            10    0       4.427750      4.452510      4.168610    -0.373053   -0.721953    1.132275     -2.473000     0.000000     0.000000
            11    0       5.932710      2.872890      5.642610    -1.026064    0.393169   -0.190796     -2.364000     0.000000     0.000000
            12    0       8.642930      8.688700      0.068620    -0.332332   -0.036105   -0.964916     -2.270000     0.000000     0.000000
            13    0       7.179580      1.209750      4.500050     0.324412    0.913177   -0.898854     -1.838000     0.000000     0.000000
            14    0       1.405550      7.150700      1.336290    -0.077002    0.841821    0.626435     -2.168000     0.000000     0.000000
            15    0       5.730180      5.782550      0.053210    -0.165633   -0.131743    0.018083     -2.264000     0.000000     0.000000
            16    0       7.247550      4.589760      4.445600     0.396147   -1.129647   -0.640016     -2.212000     0.000000     0.000000
            17    0       7.344410      7.152160      1.585430    -0.402532    0.364737   -1.318383     -2.180000     0.000000     0.000000
            18    0       8.521820      0.012650      2.822440     1.022715   -0.063341    0.348216     -2.219000     0.000000     0.000000
            19    0       1.414380      4.262310      1.496380     0.399111    0.368775   -1.035627     -2.146000     0.000000     0.000000
            20    0       4.226880      7.325520      1.404120     0.609853   -0.638957    0.569321     -2.234000     0.000000     0.000000
            21    0       1.579600      7.171510      4.401840    -0.512467    0.939992    0.236259     -2.142000     0.000000     0.000000
            22    0       7.285860      7.021440      7.277330    -0.566674    0.991660    0.741051     -2.162000     0.000000     0.000000
            23    0       3.080170      2.993800      8.663410    -1.256044   -0.139327   -0.019892     -2.409000     0.000000     0.000000
            24    0       7.145620      1.634150      7.323880    -0.138784   -1.457193   -0.481339     -2.151000     0.000000     0.000000
            25    0       4.095200      1.585730      1.569220     1.121190   -0.741983   -0.579912     -1.731000     0.000000     0.000000
            26    0       2.898840      5.814610      0.105500     0.041971   -0.596575   -0.651442     -2.506000     0.000000     0.000000
            27    0       5.672270      2.855320      0.411300    -0.032262   -0.123123   -2.100976     -1.972000     0.000000     0.000000
            28    0       0.072110      5.681640      8.679090    -0.146676    0.463390    0.321591     -2.104000     0.000000     0.000000
            29    0       2.819790      2.872150      2.928550    -0.358944    0.650387    0.410264     -2.219000     0.000000     0.000000
            30    0       5.808570      8.367530      0.003730     0.485659    1.762991    0.435186     -2.432000     0.000000     0.000000
            31    0       3.009990      0.040250      5.768640    -0.687959   -0.690748    0.508632     -2.364000     0.000000     0.000000
            32    0       2.704070      5.795710      2.957470     1.354551   -0.028461   -0.726845     -2.183000     0.000000     0.000000
            33    0       8.672350      2.881100      8.467410     1.443793    0.266071    0.706711     -2.062000     0.000000     0.000000
            34    0       1.503620      4.415180      4.448410    -0.415093   -0.443699    0.239444     -2.294000     0.000000     0.000000
            35    0       7.406700      1.602530      1.232160    -0.485731   -0.481075    1.590223     -2.049000     0.000000     0.000000
            36    0       1.439040      1.270080      4.205110    -0.380942    0.551288    0.693934     -2.264000     0.000000     0.000000
            37    0       4.147320      1.387140      4.295450     1.335703    0.528391    0.231517     -2.106000     0.000000     0.000000
            38    0       5.880010      8.603010      5.790310    -0.548973   -0.312887    0.637595     -2.121000     0.000000     0.000000
            39    0       8.461700      2.760160      5.675120     1.665462    0.713076    0.341344     -2.445000     0.000000     0.000000
            40    0       5.812940      2.945200      2.833280     0.622904   -0.614997    1.402726     -2.378000     0.000000     0.000000
            41    0       4.381180      7.127740      7.350040    -0.499664    0.839282   -0.505947     -2.279000     0.000000     0.000000
            42    0       2.849870      8.662590      2.756800    -0.476480   -0.209020    0.193961      2.233000     0.000000     0.000000
            43    0       1.539670      1.463100      7.142010    -0.572666    0.229661    0.513986     -2.334000     0.000000     0.000000
            44    0       0.089400      5.797440      2.950960    -0.343339   -0.233551   -0.187321      2.259000     0.000000     0.000000
            45    0       7.210980      4.458550      1.327960     0.692031   -0.508879    0.878662      1.973000     0.000000     0.000000
            46    0       5.796190      0.278940      2.824210     0.245475   -0.933753   -0.572190      2.572000     0.000000     0.000000
            47    0       2.884570      2.886490      5.767690     0.300924    0.066389   -0.173157     -2.485000     0.000000     0.000000
            48    0       0.091930      3.024160      2.882510    -0.947294   -0.743367    0.410512      2.358000     0.000000     0.000000
            49    0       7.167430      4.256890      7.469860    -0.572886    0.588179   -1.031986      2.114000     0.000000     0.000000
            50    0       0.131320      8.574550      5.834960    -0.611910    0.856891   -0.044981      2.310000     0.000000     0.000000
            51    0       1.394040      1.409600      1.352320    -0.108973    0.707529    0.742321      2.211000     0.000000     0.000000
            52    0       5.814880      5.899200      5.706310    -0.217255   -0.554549    0.827864      2.125000     0.000000     0.000000
            53    0       4.386350      4.355360      1.644950    -0.845386    0.870795   -0.935823     -2.355000     0.000000     0.000000
            54    0       4.626600      1.389520      7.233530    -0.731723    0.442125    0.061788      2.513000     0.000000     0.000000
 Energy
       -431.793021180000
 PlusStress:  xx          yy          zz          yz          xz          xy
       -27.32407   -30.55265   -25.48263     1.17317    -3.14365    -0.21510
 Feature   EFS_by	VASP
END_CFG

