BEGIN_CFG
 Size
    27
 Supercell
         0.000000      5.415000      5.415000
         5.415000      0.000000      5.415000
         5.415000      5.415000      0.000000
 AtomData:  id type       cartes_x      cartes_y      cartes_z           fx          fy          fz
             1    0       0.000000      0.000000      0.000000    -0.000000   -0.000000   -0.000000
             2    0       1.805000      1.805000      0.000000     0.000000    0.000000   -0.000000
             3    0       3.610000      3.610000      0.000000    -0.000000   -0.000000   -0.000000
             4    0       1.805000      0.000000      1.805000    -0.000000    0.000000    0.000000
             5    0       3.610000      1.805000      1.805000    -0.000000    0.000000    0.000000
             6    0       5.415000      3.610000      1.805000    -0.000000    0.000000    0.000000
             7    0       3.610000      0.000000      3.610000    -0.000000   -0.000000   -0.000000
             8    0       5.415000      1.805000      3.610000    -0.000000   -0.000000    0.000000
             9    0       7.220000      3.610000      3.610000     0.000000    0.000000    0.000000
            10    0       0.000000      1.805000      1.805000     0.000000    0.000000    0.000000
            11    0       1.805000      3.610000      1.805000     0.000000   -0.000000    0.000000
            12    0       3.610000      5.415000      1.805000     0.000000   -0.000000    0.000000
            13    0       1.805000      1.805000      3.610000    -0.000000    0.000000   -0.000000
            14    0       3.610000      3.610000      3.610000    -0.000000   -0.000000   -0.000000
            15    0       5.415000      5.415000      3.610000    -0.000000    0.000000   -0.000000
            16    0       3.610000      1.805000      5.415000     0.000000    0.000000   -0.000000
            17    0       5.415000      3.610000      5.415000     0.000000   -0.000000   -0.000000
            18    0       7.220000      5.415000      5.415000     0.000000   -0.000000   -0.000000
            19    0       0.000000      3.610000      3.610000    -0.000000   -0.000000   -0.000000
            20    0       1.805000      5.415000      3.610000     0.000000   -0.000000   -0.000000
            21    0       3.610000      7.220000      3.610000     0.000000    0.000000    0.000000
            22    0       1.805000      3.610000      5.415000     0.000000    0.000000   -0.000000
            23    0       3.610000      5.415000      5.415000    -0.000000    0.000000   -0.000000
            24    0       5.415000      7.220000      5.415000    -0.000000    0.000000   -0.000000
            25    0       3.610000      3.610000      7.220000    -0.000000   -0.000000    0.000000
            26    0       5.415000      5.415000      7.220000    -0.000000   -0.000000    0.000000
            27    0       7.220000      7.220000      7.220000     0.000000   -0.000000    0.000000
 Energy
         -0.153126328251
 PlusStress:  xx          yy          zz          yz          xz          xy
        -4.04731    -4.04731    -4.04731    -0.00000    -0.00000    -0.00000
END_CFG

BEGIN_CFG
 Size
    27
 Supercell
         0.000000      5.415000      5.415000
         5.415000      0.000000      5.415000
         5.415000      5.415000      0.000000
 AtomData:  id type       cartes_x      cartes_y      cartes_z           fx          fy          fz
             1    0       0.005511     -0.018809      0.013573    -0.092799    0.184500   -0.119190
             2    0       1.822011      1.769714     -0.023551    -0.185699    0.210025    0.215684
             3    0       3.612312      3.604280     -0.000304     0.023964   -0.006382   -0.072565
             4    0       1.789572      0.015905      1.819067     0.098674   -0.116340   -0.019713
             5    0       3.611194      1.825387      1.813455     0.058095   -0.209677   -0.080622
             6    0       5.399459      3.616669      1.787658     0.129306   -0.066432    0.109679
             7    0       3.625888     -0.000903      3.606657    -0.059562    0.026705    0.036072
             8    0       5.402685      1.827111      3.607205     0.134316   -0.198007    0.027446
             9    0       7.212253      3.603631      3.619627    -0.000519    0.076332   -0.112837
            10    0       0.006609      1.812465      1.812792    -0.086668    0.009670   -0.097064
            11    0       1.843734      3.602650      1.795736    -0.247069   -0.007488    0.071824
            12    0       3.595282      5.426141      1.825419     0.153837   -0.026957   -0.190072
            13    0       1.802939      1.789805      3.595088     0.088184    0.151796    0.207506
            14    0       3.621767      3.623443      3.619823    -0.053495   -0.097546    0.009287
            15    0       5.402964      5.419199      3.612110     0.027374   -0.060225   -0.010461
            16    0       3.613955      1.820761      5.419044    -0.020184   -0.135062   -0.015563
            17    0       5.427279      3.611222      5.420229    -0.023642   -0.037174    0.067197
            18    0       7.231417      5.388646      5.409218    -0.000240    0.216572    0.009786
            19    0      -0.008507      3.598445      3.605024     0.120105    0.026288    0.025340
            20    0       1.832038      5.399341      3.627512    -0.321066   -0.012844   -0.133631
            21    0       3.579564      7.213943      3.612944     0.258884    0.075085   -0.028467
            22    0       1.815602      3.622863      5.429348    -0.133893   -0.188618   -0.085739
            23    0       3.603693      5.406638      5.430517     0.136872    0.044711    0.049019
            24    0       5.411540      7.196928      5.394503     0.070311    0.115693    0.150556
            25    0       3.593371      3.618992      7.222576     0.100825   -0.044842    0.055638
            26    0       5.427488      5.407273      7.222867     0.027370    0.044722    0.027807
            27    0       7.231314      7.214405      7.228261    -0.203282    0.025494   -0.096916
 Energy
         -0.096415264680
 PlusStress:  xx          yy          zz          yz          xz          xy
        -3.85096    -3.81801    -3.83957     0.03356    -0.01900    -0.03139
END_CFG

BEGIN_CFG
 Size
    27
 Supercell
         0.000000      5.415000      5.415000
         5.415000      0.000000      5.415000
         5.415000      5.415000      0.000000
 AtomData:  id type       cartes_x      cartes_y      cartes_z           fx          fy          fz
             1    0       0.010670     -0.036919      0.026694    -0.177300    0.364368   -0.240307
             2    0       1.838319      1.735223     -0.046286    -0.388851    0.428804    0.454062
             3    0       3.614714      3.598537     -0.000882     0.052651   -0.021261   -0.164098
             4    0       1.774518      0.031368      1.833060     0.196624   -0.247853   -0.060740
             5    0       3.612608      1.844980      1.821605     0.121967   -0.430791   -0.155509
             6    0       5.384409      3.623086      1.770731     0.249918   -0.132587    0.235973
             7    0       3.641549     -0.001705      3.603450    -0.115468    0.054706    0.069973
             8    0       5.390878      1.848471      3.604515     0.252005   -0.366327    0.049370
             9    0       7.204505      3.597552      3.628827     0.004549    0.142650   -0.222426
            10    0       0.012891      1.819966      1.820215    -0.176800    0.014839   -0.193194
            11    0       1.881531      3.595271      1.786744    -0.503680    0.002947    0.147987
            12    0       3.581147      5.437179      1.845118     0.313073   -0.061656   -0.379966
            13    0       1.801212      1.775186      3.580964     0.170113    0.298296    0.412615
            14    0       3.633329      3.636516      3.629682    -0.097095   -0.195780    0.014608
            15    0       5.391031      5.423169      3.614181     0.058425   -0.122416   -0.029699
            16    0       3.617834      1.836008      5.423029    -0.037921   -0.254827   -0.027055
            17    0       5.439468      3.612303      5.425712    -0.057409   -0.070165    0.128705
            18    0       7.242834      5.363113      5.403474    -0.004043    0.428697    0.021531
            19    0      -0.016558      3.586991      3.600143     0.218893    0.054296    0.058968
            20    0       1.857859      5.383632      3.644518    -0.627069   -0.055794   -0.276523
            21    0       3.550108      7.208171      3.615780     0.545439    0.162759   -0.062540
            22    0       1.825698      3.635011      5.443371    -0.260380   -0.361337   -0.155589
            23    0       3.597904      5.398446      5.446220     0.288364    0.088138    0.097886
            24    0       5.408347      7.174294      5.374578     0.121942    0.230181    0.297101
            25    0       3.577124      3.627814      7.225362     0.200631   -0.090693    0.121897
            26    0       5.440079      5.399716      7.225841     0.051555    0.082979    0.048819
            27    0       7.241859      7.208907      7.236155    -0.400135    0.057827   -0.191852
 Energy
          0.068373076475
 PlusStress:  xx          yy          zz          yz          xz          xy
        -3.29057    -3.15476    -3.23585     0.13043    -0.07375    -0.12092
END_CFG

BEGIN_CFG
 Size
    27
 Supercell
         0.000000      5.415000      5.415000
         5.415000      0.000000      5.415000
         5.415000      5.415000      0.000000
 AtomData:  id type       cartes_x      cartes_y      cartes_z           fx          fy          fz
             1    0       0.015156     -0.053646      0.038904    -0.249918    0.535893   -0.361029
             2    0       1.853156      1.702357     -0.067301    -0.601834    0.648579    0.706756
             3    0       3.617315      3.592714     -0.002080     0.083402   -0.042622   -0.267517
             4    0       1.760212      0.045892      1.846824     0.289295   -0.389363   -0.122949
             5    0       3.614484      1.862941      1.829163     0.190670   -0.656554   -0.220729
             6    0       5.370307      3.629000      1.754700     0.358448   -0.197894    0.374038
             7    0       3.656773     -0.002302      3.600510    -0.166581    0.082113    0.100417
             8    0       5.380028      1.868439      3.602012     0.353963   -0.508165    0.067972
             9    0       7.196775      3.592013      3.637184     0.014961    0.196429   -0.324545
            10    0       0.018503      1.827523      1.826904    -0.263950    0.013548   -0.282993
            11    0       1.917418      3.587904      1.778316    -0.760621    0.033173    0.225611
            12    0       3.568197      5.447984      1.863378     0.468155   -0.104960   -0.561994
            13    0       1.800130      1.761698      3.568404     0.243255    0.438436    0.609362
            14    0       3.644522      3.648850      3.639594    -0.131905   -0.292735    0.014840
            15    0       5.379318      5.426674      3.616139     0.094290   -0.183527   -0.057522
            16    0       3.621568      1.850286      5.426911    -0.052852   -0.356700   -0.034211
            17    0       5.451440      3.613116      5.431682    -0.098870   -0.097983    0.181119
            18    0       7.254236      5.339205      5.397813    -0.011325    0.629546    0.036071
            19    0      -0.023778      3.575746      3.595485     0.297017    0.084536    0.098578
            20    0       1.881306      5.367711      3.660474    -0.905600   -0.116829   -0.421449
            21    0       3.522719      7.203016      3.618381     0.841984    0.255748   -0.103093
            22    0       1.834808      3.645786      5.456800    -0.376598   -0.514130   -0.211196
            23    0       3.593208      5.390589      5.462293     0.442120    0.129448    0.139934
            24    0       5.405616      7.152534      5.355781     0.158108    0.342589    0.437773
            25    0       3.561638      3.636294      7.228609     0.296247   -0.138177    0.194837
            26    0       5.452861      5.392475      7.229000     0.070684    0.113720    0.063763
            27    0       7.250888      7.203629      7.243319    -0.582545    0.095881   -0.281844
 Energy
          0.321891900910
 PlusStress:  xx          yy          zz          yz          xz          xy
        -2.45144    -2.14070    -2.31025     0.27778    -0.15831    -0.25654
END_CFG

BEGIN_CFG
 Size
    27
 Supercell
         0.000000      5.415000      5.415000
         5.415000      0.000000      5.415000
         5.415000      5.415000      0.000000
 AtomData:  id type       cartes_x      cartes_y      cartes_z           fx          fy          fz
             1    0       0.018694     -0.068340      0.049747    -0.308235    0.693307   -0.476351
             2    0       1.865711      1.671948     -0.085636    -0.808937    0.856707    0.955550
             3    0       3.620229      3.586732     -0.004290     0.112189   -0.067654   -0.371735
             4    0       1.747003      0.058941      1.860123     0.371808   -0.532048   -0.201443
             5    0       3.617083      1.878414      1.835884     0.260068   -0.876001   -0.273726
             6    0       5.357564      3.634162      1.740086     0.451664   -0.260204    0.515380
             7    0       3.671364     -0.002590      3.597951    -0.212026    0.107201    0.126384
             8    0       5.370521      1.886476      3.599767     0.440548   -0.626449    0.085584
             9    0       7.189104      3.587219      3.644312     0.029846    0.236296   -0.414673
            10    0       0.023116      1.835131      1.832518    -0.340290    0.003451   -0.360530
            11    0       1.950420      3.580664      1.770746    -1.004431    0.081177    0.300171
            12    0       3.557019      5.458391      1.879512     0.607596   -0.155652   -0.727024
            13    0       1.799970      1.749874      3.558155     0.304779    0.568830    0.788619
            14    0       3.655210      3.660078      3.649561    -0.160337   -0.385753    0.009210
            15    0       5.367960      5.429482      3.617880     0.136148   -0.239474   -0.092162
            16    0       3.625101      1.863206      5.430662    -0.065064   -0.439642   -0.037089
            17    0       5.463039      3.613554      5.438337    -0.144136   -0.119677    0.221072
            18    0       7.265595      5.317684      5.392289    -0.021653    0.811583    0.053582
            19    0      -0.029868      3.564825      3.591199     0.357074    0.117383    0.141317
            20    0       1.901321      5.351346      3.674832    -1.140508   -0.178616   -0.557940
            21    0       3.498523      7.198831      3.620591     1.121755    0.342586   -0.147450
            22    0       1.842490      3.654610      5.469424    -0.478692   -0.642620   -0.254481
            23    0       3.590187      5.383224      5.478897     0.581072    0.168323    0.166991
            24    0       5.403486      7.132074      5.338649     0.183378    0.451304    0.570361
            25    0       3.547277      3.644252      7.232592     0.384035   -0.187785    0.268743
            26    0       5.465908      5.385668      7.232402     0.083324    0.136495    0.074035
            27    0       7.257710      7.198714      7.249412    -0.740976    0.136935   -0.362397
 Energy
          0.629997026345
 PlusStress:  xx          yy          zz          yz          xz          xy
        -1.46614    -0.91628    -1.19344     0.45399    -0.26217    -0.41807
END_CFG

BEGIN_CFG
 Size
    27
 Supercell
         0.000000      5.415000      5.415000
         5.415000      0.000000      5.415000
         5.415000      5.415000      0.000000
 AtomData:  id type       cartes_x      cartes_y      cartes_z           fx          fy          fz
             1    0       0.021061     -0.080402      0.058783    -0.351182    0.828146   -0.578344
             2    0       1.875196      1.644788     -0.100340    -0.986827    1.036772    1.172926
             3    0       3.623566      3.580496     -0.007905     0.133966   -0.093001   -0.462582
             4    0       1.735205      0.069971      1.872658     0.439522   -0.663489   -0.286487
             5    0       3.620672      1.890565      1.841566     0.322395   -1.073921   -0.313645
             6    0       5.346534      3.638332      1.727427     0.526392   -0.315291    0.648104
             7    0       3.685150     -0.002474      3.595872    -0.251369    0.128408    0.147043
             8    0       5.362687      1.902129      3.597848     0.511812   -0.723399    0.104137
             9    0       7.181546      3.583322      3.649869     0.047986    0.262235   -0.487939
            10    0       0.026442      1.842752      1.836762    -0.397667   -0.017916   -0.419720
            11    0       1.979610      3.573735      1.764318    -1.217261    0.140074    0.365588
            12    0       3.548140      5.468207      1.892892     0.719437   -0.210229   -0.865238
            13    0       1.800966      1.740209      3.550900     0.351625    0.682986    0.937935
            14    0       3.665288      3.669849      3.659561    -0.185514   -0.471449   -0.002518
            15    0       5.357114      5.431382      3.619274     0.184894   -0.285264   -0.129995
            16    0       3.628385      1.874453      5.434271    -0.074889   -0.503675   -0.035953
            17    0       5.474094      3.613537      5.445828    -0.188503   -0.134119    0.245328
            18    0       7.276871      5.299242      5.386970    -0.034475    0.966677    0.073394
            19    0      -0.034599      3.554356      3.587446     0.402344    0.152692    0.184291
            20    0       1.917014      5.334301      3.687069    -1.315178   -0.219868   -0.673050
            21    0       3.478587      7.195948      3.622238     1.352136    0.408935   -0.188573
            22    0       1.848358      3.660993      5.481075    -0.561451   -0.741542   -0.286918
            23    0       3.589368      5.376497      5.496134     0.686075    0.204605    0.170624
            24    0       5.402053      7.113326      5.323685     0.202146    0.553018    0.691639
            25    0       3.534374      3.651503      7.237588     0.460151   -0.239499    0.336467
            26    0       5.479264      5.379382      7.236086     0.088194    0.151326    0.081126
            27    0       7.261723      7.194318      7.254126    -0.864759    0.176788   -0.427639
 Energy
          0.946801439215
 PlusStress:  xx          yy          zz          yz          xz          xy
        -0.49594     0.33637    -0.06007     0.63131    -0.36836    -0.58049
END_CFG

BEGIN_CFG
 Size
    27
 Supercell
         0.000000      5.415000      5.415000
         5.415000      0.000000      5.415000
         5.415000      5.415000      0.000000
 AtomData:  id type       cartes_x      cartes_y      cartes_z           fx          fy          fz
             1    0       0.022094     -0.089318      0.065626    -0.379125    0.930395   -0.657684
             2    0       1.880929      1.621563     -0.110578    -1.109019    1.172411    1.327574
             3    0       3.627408      3.573912     -0.013272     0.143600   -0.114689   -0.524472
             4    0       1.725075      0.078482      1.884104     0.488849   -0.769120   -0.364949
             5    0       3.625493      1.898640      1.846058     0.366859   -1.231940   -0.341249
             6    0       5.337500      3.641300      1.717228     0.579515   -0.357322    0.758380
             7    0       3.697982     -0.001877      3.594351    -0.284591    0.144376    0.161732
             8    0       5.356798      1.915027      3.596324     0.567345   -0.800491    0.125281
             9    0       7.174172      3.580421      3.653577     0.067963    0.275472   -0.539409
            10    0       0.028263      1.850307      1.839411    -0.429142   -0.052585   -0.454990
            11    0       2.004176      3.567345      1.759281    -1.379390    0.198333    0.415555
            12    0       3.541985      5.477221      1.902993     0.793065   -0.263748   -0.967847
            13    0       1.803297      1.733141      3.547209     0.381132    0.772239    1.043342
            14    0       3.674658      3.677837      3.669549    -0.210670   -0.546017   -0.019905
            15    0       5.346965      5.432197      3.620177     0.240648   -0.315486   -0.165604
            16    0       3.631384      1.883783      5.437742    -0.082748   -0.549522   -0.031256
            17    0       5.484436      3.613008      5.454248    -0.227210   -0.139992    0.250910
            18    0       7.288016      5.284465      5.381932    -0.049261    1.086843    0.094070
            19    0      -0.037799      3.544473      3.584388     0.436295    0.189664    0.224113
            20    0       1.927716      5.316417      3.696745    -1.416381   -0.220169   -0.753783
            21    0       3.463794      7.194621      3.623160     1.501393    0.440506   -0.216591
            22    0       1.852096      3.664558      5.491630    -0.619214   -0.806024   -0.309374
            23    0       3.591151      5.370543      5.514021     0.740093    0.237527    0.144164
            24    0       5.401389      7.096676      5.311354     0.217897    0.643133    0.796821
            25    0       3.523219      3.657850      7.243854     0.520980   -0.292368    0.390048
            26    0       5.492947      5.373674      7.240078     0.084248    0.158179    0.086238
            27    0       7.262458      7.190592      7.257211    -0.943133    0.210394   -0.471117
 Energy
          1.222177140276
 PlusStress:  xx          yy          zz          yz          xz          xy
         0.29822     1.42783     0.90591     0.78180    -0.45906    -0.71222
END_CFG

BEGIN_CFG
 Size
    27
 Supercell
         0.000000      5.415000      5.415000
         5.415000      0.000000      5.415000
         5.415000      5.415000      0.000000
 AtomData:  id type       cartes_x      cartes_y      cartes_z           fx          fy          fz
             1    0       0.021686     -0.094697      0.069971    -0.393145    0.989873   -0.705328
             2    0       1.882439      1.602790     -0.115751    -1.153480    1.251978    1.393705
             3    0       3.631793      3.566901     -0.020626     0.136950   -0.128535   -0.543643
             4    0       1.716799      0.084071      1.894161     0.517976   -0.835068   -0.423421
             5    0       3.631721      1.902034      1.849256     0.382541   -1.332112   -0.358177
             6    0       5.330663      3.642902      1.709911     0.608401   -0.380065    0.833121
             7    0       3.709735     -0.000738      3.593443    -0.312043    0.153947    0.169945
             8    0       5.353069      1.924874      3.595278     0.606430   -0.858385    0.149995
             9    0       7.167056      3.578566      3.655242     0.088411    0.278038   -0.564608
            10    0       0.028459      1.857664      1.840330    -0.430434   -0.101299   -0.462196
            11    0       2.023500      3.561720      1.755824    -1.472933    0.242324    0.444892
            12    0       3.538832      5.485229      1.909422     0.821159   -0.310915   -1.028370
            13    0       1.807076      1.729011      3.547485     0.391666    0.827627    1.092261
            14    0       3.683226      3.683757      3.679457    -0.238470   -0.605455   -0.041906
            15    0       5.337723      5.431813      3.620454     0.302258   -0.325243   -0.192490
            16    0       3.634065      1.891025      5.441092    -0.089084   -0.577854   -0.023619
            17    0       5.493919      3.611945      5.463620    -0.256337   -0.135993    0.235447
            18    0       7.298971      5.273809      5.377252    -0.065739    1.164998    0.113658
            19    0      -0.039338      3.535317      3.582175     0.461938    0.226705    0.257418
            20    0       1.933041      5.297692      3.703549    -1.437909   -0.166288   -0.790376
            21    0       3.454720      7.194973      3.623247     1.547245    0.427010   -0.222880
            22    0       1.853485      3.665060      5.501003    -0.647369   -0.832396   -0.322428
            23    0       3.595745      5.365486      5.532458     0.732696    0.264934    0.084946
            24    0       5.401551      7.082467      5.302057     0.233037    0.716048    0.880108
            25    0       3.514045      3.663094      7.251591     0.563726   -0.344331    0.421774
            26    0       5.506940      5.368570      7.244397     0.070207    0.157204    0.089944
            27    0       7.259616      7.187664      7.258501    -0.967700    0.233253   -0.487772
 Energy
          1.412963769166
 PlusStress:  xx          yy          zz          yz          xz          xy
         0.79019     2.19765     1.55093     0.88062    -0.51801    -0.78191
END_CFG

BEGIN_CFG
 Size
    27
 Supercell
         0.000000      5.415000      5.415000
         5.415000      0.000000      5.415000
         5.415000      5.415000      0.000000
 AtomData:  id type       cartes_x      cartes_y      cartes_z           fx          fy          fz
             1    0       0.019784     -0.096313      0.071636    -0.394692    0.999062   -0.714853
             2    0       1.879555      1.588773     -0.115601    -1.109977    1.272368    1.360425
             3    0       3.636694      3.559410     -0.030040     0.111961   -0.130530   -0.511304
             4    0       1.710486      0.086484      1.902605     0.527224   -0.851623   -0.452055
             5    0       3.639420      1.900363      1.851095     0.361866   -1.361014   -0.365814
             6    0       5.326132      3.643049      1.705760     0.611183   -0.379193    0.862765
             7    0       3.720304      0.000978      3.593179    -0.334417    0.156140    0.171323
             8    0       5.351649      1.931450      3.594802     0.628287   -0.897112    0.178393
             9    0       7.160276      3.577769      3.654766     0.108189    0.272155   -0.560186
            10    0       0.027026      1.864639      1.839492    -0.401098   -0.162873   -0.439183
            11    0       2.037224      3.557032      1.754060    -1.486487    0.260227    0.450722
            12    0       3.538789      5.492048      1.911949     0.801055   -0.347566   -1.043691
            13    0       1.812344      1.728031      3.551918     0.383215    0.842622    1.077045
            14    0       3.690887      3.687382      3.689203    -0.270382   -0.645958   -0.067119
            15    0       5.329622      5.430192      3.620002     0.366909   -0.311240   -0.204215
            16    0       3.636404      1.896073      5.444350    -0.094077   -0.589397   -0.013770
            17    0       5.502434      3.610364      5.473884    -0.273586   -0.121020    0.197595
            18    0       7.309674      5.267571      5.373005    -0.083896    1.196307    0.130343
            19    0      -0.039121      3.527032      3.580933     0.481314    0.261448    0.281174
            20    0       1.932903      5.278333      3.707339    -1.381916   -0.057125   -0.779015
            21    0       3.451541      7.196956      3.622472     1.483926    0.365241   -0.204641
            22    0       1.852417      3.662398      5.509143    -0.643659   -0.819112   -0.326867
            23    0       3.603121      5.361429      5.551223     0.663159    0.283026   -0.004445
            24    0       5.402599      7.070974      5.296113     0.248360    0.766404    0.935636
            25    0       3.507013      3.667040      7.260921     0.587057   -0.392270    0.425249
            26    0       5.521189      5.364066      7.249057     0.044587    0.148558    0.091954
            27    0       7.253104      7.185619      7.257932    -0.934105    0.242475   -0.475466
 Energy
          1.494203928501
 PlusStress:  xx          yy          zz          yz          xz          xy
         0.91675     2.55359     1.79133     0.91194    -0.53591    -0.76540
END_CFG

BEGIN_CFG
 Size
    27
 Supercell
         0.000000      5.415000      5.415000
         5.415000      0.000000      5.415000
         5.415000      5.415000      0.000000
 AtomData:  id type       cartes_x      cartes_y      cartes_z           fx          fy          fz
             1    0       0.016382     -0.094128      0.070585    -0.384718    0.955113   -0.684245
             2    0       1.872443      1.579589     -0.110255    -0.983466    1.239840    1.236003
             3    0       3.642018      3.551435     -0.041391     0.069193   -0.117330   -0.425879
             4    0       1.706169      0.085658      1.909327     0.518908   -0.816144   -0.447663
             5    0       3.648512      1.893515      1.851547     0.303778   -1.313311   -0.364202
             6    0       5.323917      3.641744      1.704890     0.587000   -0.353865    0.843749
             7    0       3.729605      0.003279      3.593563    -0.352755    0.150014    0.165649
             8    0       5.352622      1.934606      3.595006     0.632197   -0.916244    0.209531
             9    0       7.153905      3.578008      3.652167     0.126685    0.259688   -0.524613
            10    0       0.024074      1.871000      1.836984    -0.344622   -0.234004   -0.386160
            11    0       2.045299      3.553350      1.754011    -1.418793    0.245878    0.433095
            12    0       3.541779      5.497537      1.910513     0.735381   -0.371923   -1.014406