BEGIN_CFG
 Size
    27
 Supercell
         0.000000      5.415000      5.415000
         5.415000      0.000000      5.415000
         5.415000      5.415000      0.000000
 AtomData:  id type       cartes_x      cartes_y      cartes_z           fx          fy          fz
             1    0       0.000000      0.000000      0.000000     0.000000    0.000000    0.000000
             2    0       1.805000      1.805000      0.000000     0.000000   -0.000000    0.000000
             3    0       3.610000      3.610000      0.000000    -0.000000   -0.000000    0.000000
             4    0       1.805000      0.000000      1.805000     0.000000    0.000000   -0.000000
             5    0       3.610000      1.805000      1.805000     0.000000   -0.000000   -0.000000
             6    0       5.415000      3.610000      1.805000    -0.000000    0.000000    0.000000
             7    0       3.610000      0.000000      3.610000    -0.000000    0.000000   -0.000000
             8    0       5.415000      1.805000      3.610000    -0.000000   -0.000000   -0.000000
             9    0       7.220000      3.610000      3.610000     0.000000   -0.000000    0.000000
            10    0       0.000000      1.805000      1.805000    -0.000000    0.000000    0.000000
            11    0       1.805000      3.610000      1.805000    -0.000000    0.000000   -0.000000
            12    0       3.610000      5.415000      1.805000    -0.000000   -0.000000    0.000000
            13    0       1.805000      1.805000      3.610000    -0.000000   -0.000000    0.000000
            14    0       3.610000      3.610000      3.610000    -0.000000    0.000000    0.000000
            15    0       5.415000      5.415000      3.610000    -0.000000    0.000000    0.000000
            16    0       3.610000      1.805000      5.415000     0.000000    0.000000   -0.000000
            17    0       5.415000      3.610000      5.415000    -0.000000   -0.000000   -0.000000
            18    0       7.220000      5.415000      5.415000     0.000000   -0.000000   -0.000000
            19    0       0.000000      3.610000      3.610000     0.000000   -0.000000   -0.000000
            20    0       1.805000      5.415000      3.610000    -0.000000   -0.000000   -0.000000
            21    0       3.610000      7.220000      3.610000     0.000000    0.000000    0.000000
            22    0       1.805000      3.610000      5.415000     0.000000    0.000000   -0.000000
            23    0       3.610000      5.415000      5.415000    -0.000000    0.000000   -0.000000
            24    0       5.415000      7.220000      5.415000    -0.000000    0.000000   -0.000000
            25    0       3.610000      3.610000      7.220000    -0.000000   -0.000000    0.000000
            26    0       5.415000      5.415000      7.220000    -0.000000   -0.000000    0.000000
            27    0       7.220000      7.220000      7.220000     0.000000   -0.000000    0.000000
 Energy
         -0.152426319767
 PlusStress:  xx          yy          zz          yz          xz          xy
        -4.35964    -4.35964    -4.35964     0.00000     0.00000     0.00000
END_CFG

BEGIN_CFG
 Size
    27
 Supercell
         0.000000      5.415000      5.415000
         5.415000      0.000000      5.415000
         5.415000      5.415000      0.000000
 AtomData:  id type       cartes_x      cartes_y      cartes_z           fx          fy          fz
             1    0       0.005511     -0.018809      0.013573    -0.092828    0.184404   -0.118848
             2    0       1.822011      1.769714     -0.023551    -0.184633    0.209688    0.214931
             3    0       3.612312      3.604280     -0.000304     0.023274   -0.006380   -0.072191
             4    0       1.789572      0.015905      1.819067     0.098611   -0.116214   -0.019465
             5    0       3.611194      1.825387      1.813455     0.057766   -0.209149   -0.080751
             6    0       5.399459      3.616669      1.787658     0.129136   -0.066308    0.109723
             7    0       3.625888     -0.000903      3.606657    -0.059634    0.026239    0.035890
             8    0       5.402685      1.827111      3.607205     0.134093   -0.197533    0.027612
             9    0       7.212253      3.603631      3.619627    -0.000301    0.076280   -0.112564
            10    0       0.006609      1.812465      1.812792    -0.086233    0.009338   -0.097144
            11    0       1.843734      3.602650      1.795736    -0.246174   -0.007471    0.072076
            12    0       3.595282      5.426141      1.825419     0.153186   -0.027061   -0.189157
            13    0       1.802939      1.789805      3.595088     0.088020    0.151646    0.206938
            14    0       3.621767      3.623443      3.619823    -0.053931   -0.096616    0.009012
            15    0       5.402964      5.419199      3.612110     0.027159   -0.060490   -0.010681
            16    0       3.613955      1.820761      5.419044    -0.020271   -0.135101   -0.015457
            17    0       5.427279      3.611222      5.420229    -0.023417   -0.037269    0.066667
            18    0       7.231417      5.388646      5.409218     0.000048    0.215980    0.009681
            19    0      -0.008507      3.598445      3.605024     0.120294    0.026660    0.025178
            20    0       1.832038      5.399341      3.627512    -0.319279   -0.012983   -0.133286
            21    0       3.579564      7.213943      3.612944     0.257519    0.074346   -0.027970
            22    0       1.815602      3.622863      5.429348    -0.133253   -0.188089   -0.085833
            23    0       3.603693      5.406638      5.430517     0.136005    0.044831    0.048370
            24    0       5.411540      7.196928      5.394503     0.070113    0.115488    0.150617
            25    0       3.593371      3.618992      7.222576     0.100111   -0.044576    0.055401
            26    0       5.427488      5.407273      7.222867     0.026952    0.044614    0.027914
            27    0       7.231314      7.214405      7.228261    -0.202331    0.025725   -0.096664
 Energy
         -0.095867723958
 PlusStress:  xx          yy          zz          yz          xz          xy
        -4.14617    -4.11201    -4.13252     0.03254    -0.01911    -0.03030
END_CFG

BEGIN_CFG
 Size
    27
 Supercell
         0.000000      5.415000      5.415000
         5.415000      0.000000      5.415000
         5.415000      5.415000      0.000000
 AtomData:  id type       cartes_x      cartes_y      cartes_z           fx          fy          fz
             1    0       0.010670     -0.036919      0.026694    -0.177189    0.364518   -0.239830
             2    0       1.838319      1.735223     -0.046286    -0.386993    0.428141    0.452676
             3    0       3.614714      3.598537     -0.000882     0.051087   -0.021163   -0.162938
             4    0       1.774518      0.031368      1.833060     0.196321   -0.247441   -0.060159
             5    0       3.612608      1.844980      1.821605     0.121507   -0.429416   -0.155601
             6    0       5.384409      3.623086      1.770731     0.249636   -0.132815    0.235822
             7    0       3.641549     -0.001705      3.603450    -0.115803    0.053968    0.069702
             8    0       5.390878      1.848471      3.604515     0.251859   -0.365894    0.049699
             9    0       7.204505      3.597552      3.628827     0.004761    0.142580   -0.221925
            10    0       0.012891      1.819966      1.820215    -0.175677    0.014246   -0.193735
            11    0       1.881531      3.595271      1.786744    -0.501873    0.002782    0.148436
            12    0       3.581147      5.437179      1.845118     0.311456   -0.061847   -0.377993
            13    0       1.801212      1.775186      3.580964     0.169760    0.297935    0.411427
            14    0       3.633329      3.636516      3.629682    -0.098189   -0.193763    0.013931
            15    0       5.391031      5.423169      3.614181     0.058117   -0.123080   -0.030122
            16    0       3.617834      1.836008      5.423029    -0.038138   -0.255247   -0.026996
            17    0       5.439468      3.612303      5.425712    -0.056516   -0.070532    0.127583
            18    0       7.242834      5.363113      5.403474    -0.003579    0.427438    0.021400
            19    0      -0.016558      3.586991      3.600143     0.219943    0.055136    0.058768
            20    0       1.857859      5.383632      3.644518    -0.623491   -0.055773   -0.275769
            21    0       3.550108      7.208171      3.615780     0.542394    0.161050   -0.061690
            22    0       1.825698      3.635011      5.443371    -0.259532   -0.360332   -0.155904
            23    0       3.597904      5.398446      5.446220     0.286213    0.088046    0.096551
            24    0       5.408347      7.174294      5.374578     0.122346    0.230176    0.297849
            25    0       3.577124      3.627814      7.225362     0.199004   -0.090188    0.121049
            26    0       5.440079      5.399716      7.225841     0.051102    0.083081    0.049169
            27    0       7.241859      7.208907      7.236155    -0.398529    0.058398   -0.191402
 Energy
          0.068487673076
 PlusStress:  xx          yy          zz          yz          xz          xy
        -3.53780    -3.39734    -3.47402     0.12714    -0.07440    -0.11685
END_CFG

BEGIN_CFG
 Size
    27
 Supercell
         0.000000      5.415000      5.415000
         5.415000      0.000000      5.415000
         5.415000      5.415000      0.000000
 AtomData:  id type       cartes_x      cartes_y      cartes_z           fx          fy          fz
             1    0       0.015156     -0.053646      0.038904    -0.249564    0.536371   -0.360392
             2    0       1.853156      1.702357     -0.067301    -0.600159    0.648063    0.705734
             3    0       3.617315      3.592714     -0.002080     0.081001   -0.042292   -0.265449
             4    0       1.760212      0.045892      1.846824     0.288621   -0.388741   -0.122203
             5    0       3.614484      1.862941      1.829163     0.190598   -0.654424   -0.220656
             6    0       5.370307      3.629000      1.754700     0.358092   -0.198990    0.373553
             7    0       3.656773     -0.002302      3.600510    -0.167221    0.081225    0.100131
             8    0       5.380028      1.868439      3.602012     0.353827   -0.507667    0.068177
             9    0       7.196775      3.592013      3.637184     0.014960    0.196356   -0.323860
            10    0       0.018503      1.827523      1.826904    -0.262029    0.012778   -0.284310
            11    0       1.917418      3.587904      1.778316    -0.758215    0.032885    0.226205
            12    0       3.568197      5.447984      1.863378     0.465586   -0.105410   -0.559394
            13    0       1.800130      1.761698      3.568404     0.242614    0.437746    0.607496
            14    0       3.644522      3.648850      3.639594    -0.133658   -0.289831    0.013627
            15    0       5.379318      5.426674      3.616139     0.094095   -0.184660   -0.058126
            16    0       3.621568      1.850286      5.426911    -0.053176   -0.357793   -0.034234
            17    0       5.451440      3.613116      5.431682    -0.096988   -0.098738    0.179430
            18    0       7.254236      5.339205      5.397813    -0.010902    0.627608    0.036043
            19    0      -0.023778      3.575746      3.595485     0.299308    0.085913    0.098514
            20    0       1.881306      5.367711      3.660474    -0.900649   -0.117063   -0.420577
            21    0       3.522719      7.203016      3.618381     0.838046    0.253396   -0.102327
            22    0       1.834808      3.645786      5.456800    -0.376052   -0.512564   -0.211503
            23    0       3.593208      5.390589      5.462293     0.438768    0.128846    0.138212
            24    0       5.405616      7.152534      5.355781     0.159768    0.343174    0.439841
            25    0       3.561638      3.636294      7.228609     0.293623   -0.137487    0.193151
            26    0       5.452861      5.392475      7.229000     0.070432    0.114329    0.064365
            27    0       7.250888      7.203629      7.243319    -0.580726    0.096972   -0.281446
 Energy
          0.321435410007
 PlusStress:  xx          yy          zz          yz          xz          xy
        -2.62957    -2.31051    -2.46921     0.27236    -0.16029    -0.24753
END_CFG

BEGIN_CFG
 Size
    27
 Supercell
         0.000000      5.415000      5.415000
         5.415000      0.000000      5.415000
         5.415000      5.415000      0.000000
 AtomData:  id type       cartes_x      cartes_y      cartes_z           fx          fy          fz
             1    0       0.018694     -0.068340      0.049747    -0.307630    0.694234   -0.475645
             2    0       1.865711      1.671948     -0.085636    -0.808798    0.857062    0.956390
             3    0       3.620229      3.586732     -0.004290     0.109173   -0.066975   -0.368985
             4    0       1.747003      0.058941      1.860123     0.370733   -0.531574   -0.200981
             5    0       3.617083      1.878414      1.835884     0.261119   -0.873649   -0.273407
             6    0       5.357564      3.634162      1.740086     0.451226   -0.262705    0.514684
             7    0       3.671364     -0.002590      3.597951    -0.212892    0.106186    0.126130
             8    0       5.370521      1.886476      3.599767     0.441362   -0.626747    0.085341
             9    0       7.189104      3.587219      3.644312     0.029518    0.236204   -0.413826
            10    0       0.023116      1.835131      1.832518    -0.337674    0.002635   -0.362817
            11    0       1.950420      3.580664      1.770746    -1.001732    0.081205    0.300603
            12    0       3.557019      5.458391      1.879512     0.604327   -0.156649   -0.724575
            13    0       1.799970      1.749874      3.558155     0.303731    0.567977    0.786409
            14    0       3.655210      3.660078      3.649561    -0.162542   -0.382359    0.007373
            15    0       5.367960      5.429482      3.617880     0.136238   -0.241100   -0.092920
            16    0       3.625101      1.863206      5.430662    -0.065425   -0.441569   -0.037125
            17    0       5.463039      3.613554      5.438337    -0.141156   -0.120862    0.218930
            18    0       7.265595      5.317684      5.392289    -0.021528    0.809060    0.053805
            19    0      -0.029868      3.564825      3.591199     0.360306    0.119346    0.141884
            20    0       1.901321      5.351346      3.674832    -1.136059   -0.178720   -0.557482
            21    0       3.498523      7.198831      3.620591     1.118442    0.340289   -0.147412
            22    0       1.842490      3.654610      5.469424    -0.478692   -0.640380   -0.254601
            23    0       3.590187      5.383224      5.478897     0.576990    0.167053    0.165309
            24    0       5.403486      7.132074      5.338649     0.186408    0.452588    0.574201
            25    0       3.547277      3.644252      7.232592     0.380534   -0.187019    0.266223
            26    0       5.465908      5.385668      7.232402     0.083366    0.137791    0.074812
            27    0       7.257710      7.198714      7.249412    -0.739345    0.138677   -0.362318
 Energy
          0.629095702441
 PlusStress:  xx          yy          zz          yz          xz          xy
        -1.56485    -1.00210    -1.26371     0.44750    -0.26528    -0.40753
END_CFG

BEGIN_CFG
 Size
    27
 Supercell
         0.000000      5.415000      5.415000
         5.415000      0.000000      5.415000
         5.415000      5.415000      0.000000
 AtomData:  id type       cartes_x      cartes_y      cartes_z           fx          fy          fz
             1    0       0.021061     -0.080402      0.058783    -0.350295    0.830129   -0.578307
             2    0       1.875196      1.644788     -0.100340    -0.989316    1.038507    1.176870
             3    0       3.623566      3.580496     -0.007905     0.130673   -0.091857   -0.459527
             4    0       1.735205      0.069971      1.872658     0.438072   -0.663669   -0.286839
             5    0       3.620672      1.890565      1.841566     0.325039   -1.071832   -0.313010
             6    0       5.346534      3.638332      1.727427     0.525749   -0.319498    0.647521
             7    0       3.685150     -0.002474      3.595872    -0.252339    0.127252    0.146833
             8    0       5.362687      1.902129      3.597848     0.513985   -0.725365    0.103744
             9    0       7.181546      3.583322      3.649869     0.047296    0.262108   -0.486987
            10    0       0.026442      1.842752      1.836762    -0.394558   -0.018664   -0.423042
            11    0       1.979610      3.573735      1.764318    -1.215321    0.141044    0.366292
            12    0       3.548140      5.468207      1.892892     0.715830   -0.212146   -0.863742
            13    0       1.800966      1.740209      3.550900     0.350141    0.682685    0.936298
            14    0       3.665288      3.669849      3.659561    -0.187873   -0.468083   -0.005026
            15    0       5.357114      5.431382      3.619274     0.185412   -0.287433   -0.130965
            16    0       3.628385      1.874453      5.434271    -0.075220   -0.506391   -0.035957
            17    0       5.474094      3.613537      5.445828    -0.184554   -0.135709    0.242866
            18    0       7.276871      5.299242      5.386970    -0.034842    0.963718    0.073920
            19    0      -0.034599      3.554356      3.587446     0.406379    0.155269    0.185014
            20    0       1.917014      5.334301      3.687069    -1.312546   -0.219760   -0.673445
            21    0       3.478587      7.195948      3.622238     1.350804    0.407383   -0.189757
            22    0       1.848358      3.660993      5.481075    -0.562222   -0.739339   -0.286862
            23    0       3.589368      5.376497      5.496134     0.681776    0.202685    0.169346
            24    0       5.402053      7.113326      5.323685     0.206723    0.555442    0.697483
            25    0       3.534374      3.651503      7.237588     0.456015   -0.238753    0.333317
            26    0       5.479264      5.379382      7.236086     0.088750    0.153101    0.081996
            27    0       7.261723      7.194318      7.254126    -0.863559    0.179175   -0.428034
 Energy
          0.945848669053
 PlusStress:  xx          yy          zz          yz          xz          xy
        -0.51764     0.33385    -0.04155     0.62402    -0.37532    -0.56813
END_CFG

BEGIN_CFG
 Size
    27
 Supercell
         0.000000      5.415000      5.415000
         5.415000      0.000000      5.415000
         5.415000      5.415000      0.000000
 AtomData:  id type       cartes_x      cartes_y      cartes_z           fx          fy          fz
             1    0       0.022094     -0.089318      0.065626    -0.377703    0.933399   -0.658744
             2    0       1.880929      1.621563     -0.110578    -1.114447    1.175718    1.334979
             3    0       3.627408      3.573912     -0.013272     0.140344   -0.112915   -0.521341
             4    0       1.725075      0.078482      1.884104     0.487078   -0.770275   -0.366419
             5    0       3.625493      1.898640      1.846058     0.371600   -1.230855   -0.340315
             6    0       5.337500      3.641300      1.717228     0.578617   -0.363226    0.758239
             7    0       3.697982     -0.001877      3.594351    -0.285260    0.143322    0.161550
             8    0       5.356798      1.915027      3.596324     0.570923   -0.804371    0.124886
             9    0       7.174172      3.580421      3.653577     0.066801    0.275006   -0.538347
            10    0       0.028263      1.850307      1.839411    -0.425659   -0.053180   -0.459327
            11    0       2.004176      3.567345      1.759281    -1.378805    0.200556    0.416601
            12    0       3.541985      5.477221      1.902993     0.789397   -0.266955   -0.967891
            13    0       1.803297      1.733141      3.547209     0.379431    0.773043    1.042837
            14    0       3.674658      3.677837      3.669549    -0.213118   -0.543317   -0.023044
            15    0       5.346965      5.432197      3.620177     0.241676   -0.318162   -0.166870
            16    0       3.631384      1.883783      5.437742    -0.083081   -0.552467   -0.031231
            17    0       5.484436      3.613008      5.454248    -0.222440   -0.142020    0.248294
            18    0       7.288016      5.284465      5.381932    -0.050372    1.083432    0.094815
            19    0      -0.037799      3.544473      3.584388     0.440937    0.192822    0.224897
            20    0       1.927716      5.316417      3.696745    -1.416050   -0.219577   -0.755075
            21    0       3.463794      7.194621      3.623160     1.502417    0.440015   -0.218938
            22    0       1.852096      3.664558      5.491630    -0.620925   -0.804196   -0.309267
            23    0       3.591151      5.370543      5.514021     0.735880    0.235181    0.143450
            24    0       5.401389      7.096676      5.311354     0.223960    0.646739    0.804582
            25    0       3.523219      3.657850      7.243854     0.516488   -0.291696    0.386614
            26    0       5.492947      5.373674      7.240078     0.085022    0.160489    0.087132
            27    0       7.262458      7.190592      7.257211    -0.942713    0.213489   -0.472065
 Energy
          1.221598030639
 PlusStress:  xx          yy          zz          yz          xz          xy
         0.34275     1.49604     1.00179     0.77335    -0.47012    -0.69980
END_CFG

BEGIN_CFG
 Size
    27
 Supercell
         0.000000      5.415000      5.415000
         5.415000      0.000000      5.415000
         5.415000      5.415000      0.000000
 AtomData:  id type       cartes_x      cartes_y      cartes_z           fx          fy          fz
             1    0       0.021686     -0.094697      0.069971    -0.391412    0.993757   -0.707483
             2    0       1.882439      1.602790     -0.115751    -1.160783    1.256271    1.403337
             3    0       3.631793      3.566901     -0.020626     0.133935   -0.126187   -0.540653
             4    0       1.716799      0.084071      1.894161     0.515941   -0.837108   -0.425835
             5    0       3.631721      1.902034      1.849256     0.389165   -1.332205   -0.357099
             6    0       5.330663      3.642902      1.709911     0.607368   -0.387478    0.833391
             7    0       3.709735     -0.000738      3.593443    -0.312128    0.153113    0.169738
             8    0       5.353069      1.924874      3.595278     0.611233   -0.863985    0.149610
             9    0       7.167056      3.578566      3.655242     0.086727    0.277030   -0.563590
            10    0       0.028459      1.857664      1.840330    -0.426799   -0.101677   -0.467246
            11    0       2.023500      3.561720      1.755824    -1.473603    0.245780    0.446242
            12    0       3.538832      5.485229      1.909422     0.817493   -0.315315   -1.029911
            13    0       1.807076      1.729011      3.547485     0.389819    0.829462    1.092932
            14    0       3.683226      3.683757      3.679457    -0.240886   -0.603711   -0.045540
            15    0       5.337723      5.431813      3.620454     0.303782   -0.328227   -0.194082
            16    0       3.634065      1.891025      5.441092    -0.089293   -0.580943   -0.023569
            17    0       5.493919      3.611945      5.463620    -0.251011   -0.138327    0.232839
            18    0       7.298971      5.273809      5.377252    -0.067521    1.161473    0.114666
            19    0      -0.039338      3.535317      3.582175     0.466843    0.230336    0.258327
            20    0       1.933041      5.297692      3.703549    -1.439621   -0.164664   -0.792240
            21    0       3.454720      7.194973      3.623247     1.549854    0.427443   -0.225785
            22    0       1.853485      3.665060      5.501003    -0.649895   -0.830963   -0.322360
            23    0       3.595745      5.365486      5.532458     0.728664    0.262486    0.084766
            24    0       5.401551      7.082467      5.302057     0.240054    0.720770    0.889443
            25    0       3.514045      3.663094      7.251591     0.559090   -0.343771    0.418497
            26    0       5.506940      5.368570      7.244397     0.070927    0.159898    0.090812
            27    0       7.259616      7.187664      7.258501    -0.967944    0.236741   -0.489206
 Energy
          1.412946592451
 PlusStress:  xx          yy          zz          yz          xz          xy
         0.88596     2.31871     1.70517     0.87067    -0.53084    -0.77143
END_CFG

BEGIN_CFG
 Size
    27
 Supercell
         0.000000      5.415000      5.415000
         5.415000      0.000000      5.415000
         5.415000      5.415000      0.000000
 AtomData:  id type       cartes_x      cartes_y      cartes_z           fx          fy          fz
             1    0       0.019784     -0.096313      0.071636    -0.392916    1.003225   -0.717717
             2    0       1.879555      1.588773     -0.115601    -1.117368    1.276784    1.370207
             3    0       3.636694      3.559410     -0.030040     0.109287   -0.127811   -0.508609
             4    0       1.710486      0.086484      1.902605     0.524983   -0.854071   -0.454763
             5    0       3.639420      1.900363      1.851095     0.369495   -1.361831   -0.364847
             6    0       5.326132      3.643049      1.705760     0.610052   -0.387451    0.863165
             7    0       3.720304      0.000978      3.593179    -0.333982    0.155302    0.171003
             8    0       5.351649      1.931450      3.594802     0.633991   -0.903939    0.177935
             9    0       7.160276      3.577769      3.654766     0.106339    0.270786   -0.559295
            10    0       0.027026      1.864639      1.839492    -0.397590   -0.162981   -0.444464
            11    0       2.037224      3.557032      1.754060    -1.487722    0.264446    0.452242
            12    0       3.538789      5.492048      1.911949     0.797330   -0.352649   -1.046218
            13    0       1.812344      1.728031      3.551918     0.381187    0.844887    1.078451
            14    0       3.690887      3.687382      3.689203    -0.272598   -0.645151   -0.071020
            15    0       5.329622      5.430192      3.620002     0.368845   -0.314188   -0.206042
            16    0       3.636404      1.896073      5.444350    -0.094205   -0.592523   -0.013683
            17    0       5.502434      3.610364      5.473884    -0.268042   -0.123428    0.195176
            18    0       7.309674      5.267571      5.373005    -0.086076    1.192925    0.131526
            19    0      -0.039121      3.527032      3.580933     0.485965    0.265399    0.282220
            20    0       1.932903      5.278333      3.707339    -1.385080   -0.054156   -0.780860
            21    0       3.451541      7.196956      3.622472     1.486796    0.366256   -0.207306
            22    0       1.852417      3.662398      5.509143    -0.646555   -0.817935   -0.326766
            23    0       3.603121      5.361429      5.551223     0.659355    0.280753   -0.004174
            24    0       5.402599      7.070974      5.296113     0.255536    0.771793    0.945756
            25    0       3.507013      3.667040      7.260921     0.582459   -0.391840    0.422503
            26    0       5.521189      5.364066      7.249057     0.045068    0.151339    0.092777
            27    0       7.253104      7.185619      7.257932    -0.934553    0.246059   -0.477197
 Energy
          1.494635279497
 PlusStress:  xx          yy          zz          yz          xz          xy
         1.04557     2.70481     1.97823     0.89962    -0.54784    -0.75671
END_CFG

BEGIN_CFG
 Size
    27
 Supercell
         0.000000      5.415000      5.415000
         5.415000      0.000000      5.415000
         5.415000      5.415000      0.000000
 AtomData:  id type       cartes_x      cartes_y      cartes_z           fx          fy          fz
             1    0       0.016382     -0.094128      0.070585    -0.383215    0.958740   -0.687240
             2    0       1.872443      1.579589     -0.110255    -0.989296    1.243721    1.244073
             3    0       3.642018      3.551435     -0.041391     0.066927   -0.114511   -0.423604
             4    0       1.706169      0.085658      1.909327     0.516532   -0.818382   -0.449809
             5    0       3.648512      1.893515      1.851547     0.311236   -1.314050   -0.363614
             6    0       5.323917      3.641744      1.704890     0.585780   -0.362085    0.843922
             7    0       3.729605      0.003279      3.593563    -0.351879    0.148967    0.165116
             8    0       5.352622      1.934606      3.595006     0.638395   -0.923626    0.208842
             9    0       7.153905      3.578008      3.652167     0.124994    0.258178   -0.523864
            10    0       0.024074      1.871000      1.836984    -0.341503   -0.233809   -0.391168
            11    0       2.045299      3.553350      1.754011    -1.419662    0.250126    0.434617
            12    0       3.541779      5.497537      1.910513     0.731589   -0.377015   -1.017225