BEGIN_CFG
 Size
    27
 Supercell
         0.000000      5.415000      5.415000
         5.415000      0.000000      5.415000
         5.415000      5.415000      0.000000
 AtomData:  id type       cartes_x      cartes_y      cartes_z           fx          fy          fz
             1    0       0.000000      0.000000      0.000000    -1.180133   -0.007745   -1.180133
             2    1       1.805000      1.805000      0.000000     0.581799   -0.740254    0.113604
             3    2       3.610000      3.610000      0.000000     0.319546    0.339513    0.076276
             4    2       1.805000      0.000000      1.805000     0.216176    0.032914    0.216176
             5    0       3.610000      1.805000      1.805000     0.260852   -0.594073   -0.857729
             6    1       5.415000      3.610000      1.805000    -0.026250    0.024329   -0.049416
             7    2       3.610000      0.000000      3.610000     0.359247    0.043633    0.359247
             8    2       5.415000      1.805000      3.610000    -0.016443   -0.659548   -0.042717
             9    0       7.220000      3.610000      3.610000    -0.265795    0.872043   -0.629204
            10    1       0.000000      1.805000      1.805000     0.113604   -0.740254    0.581799
            11    2       1.805000      3.610000      1.805000     0.310080    0.663338    0.310080
            12    2       3.610000      5.415000      1.805000    -0.618668   -0.049215   -0.010181
            13    0       1.805000      1.805000      3.610000    -0.857729   -0.594073    0.260852
            14    1       3.610000      3.610000      3.610000    -0.036097    1.293740   -0.036097
            15    2       5.415000      5.415000      3.610000    -0.348903    0.320218   -0.062341
            16    2       3.610000      1.805000      5.415000    -0.042717   -0.659548   -0.016443
            17    0       5.415000      3.610000      5.415000    -0.622158    0.015043   -0.622158
            18    1       7.220000      5.415000      5.415000     1.229609    0.711828    0.768701
            19    2       0.000000      3.610000      3.610000     0.076276    0.339513    0.319546
            20    2       1.805000      5.415000      3.610000    -0.010181   -0.049215   -0.618668
            21    0       3.610000      7.220000      3.610000     0.887445   -1.793958    0.887445
            22    1       1.805000      3.610000      5.415000    -0.049416    0.024329   -0.026250
            23    2       3.610000      5.415000      5.415000    -0.062341    0.320218   -0.348903
            24    2       5.415000      7.220000      5.415000    -0.250310   -0.000133   -0.250310
            25    0       3.610000      3.610000      7.220000    -0.629204    0.872043   -0.265795
            26    1       5.415000      5.415000      7.220000     0.768701    0.711828    1.229609
            27    2       7.220000      7.220000      7.220000    -0.106990   -0.696513   -0.106990
 Energy
          7.377905027745
 PlusStress:  xx          yy          zz          yz          xz          xy
        77.52387    73.06056    77.52387    -0.41676    -5.09611    -0.41676
END_CFG

BEGIN_CFG
 Size
    27
 Supercell
         0.000000      5.415000      5.415000
         5.415000      0.000000      5.415000
         5.415000      5.415000      0.000000
 AtomData:  id type       cartes_x      cartes_y      cartes_z           fx          fy          fz
             1    0       0.002399     -0.010685      0.006978    -1.330723    0.313852   -1.318862
             2    1       1.818698      1.777096     -0.017959     0.130817   -0.405106    0.510017
             3    2       3.612946      3.604940     -0.000163     0.317882    0.318565   -0.016779
             4    2       1.789998      0.015981      1.819493     0.343539   -0.186063    0.173472
             5    0       3.610830      1.816221      1.809274     0.373173   -0.894675   -0.962581
             6    1       5.403032      3.615147      1.791623     0.203263   -0.085288    0.154823
             7    2       3.626591     -0.000818      3.607360     0.232561    0.076200    0.402576
             8    2       5.402661      1.825818      3.607142     0.146463   -0.929405    0.016704
             9    0       7.215437      3.606907      3.615087    -0.332272    0.955721   -0.869713
            10    1       0.005191      1.809909      1.811622    -0.008034   -0.665243    0.328537
            11    2       1.844346      3.603925      1.796348    -0.057528    0.663196    0.313683
            12    2       3.594087      5.426060      1.825400    -0.405795   -0.093506   -0.255017
            13    0       1.803301      1.796010      3.601682    -0.649495   -0.328696    0.658116
            14    1       3.618987      3.621778      3.617496    -0.170383    1.072679   -0.018716
            15    2       5.402279      5.419833      3.611994    -0.250133    0.235358   -0.056330
            16    2       3.613892      1.819467      5.419020    -0.086623   -0.845917   -0.048678
            17    0       5.421595      3.610691      5.417591    -0.584671   -0.118649   -0.393256
            18    1       7.230169      5.395573      5.411422     1.259674    1.080461    0.784040
            19    2      -0.008366      3.599105      3.605658     0.241772    0.403814    0.403805
            20    2       1.832019      5.399260      3.626317    -0.399212   -0.048383   -0.803938
            21    0       3.593255      7.215448      3.612215     1.273105   -1.687854    0.712195
            22    1       1.813072      3.619901      5.425973    -0.266306   -0.338876   -0.232464
            23    2       3.603577      5.407272      5.429832     0.118561    0.392146   -0.320031
            24    2       5.411040      7.196936      5.394003    -0.152991    0.150574   -0.021537
            25    0       3.600173      3.615632      7.221300    -0.407979    0.835344   -0.154190
            26    1       5.425445      5.409869      7.223607     0.807816    0.771385    1.265207
            27    2       7.231133      7.213051      7.228079    -0.346480   -0.641634   -0.251081
 Energy
          7.436331417622
 PlusStress:  xx          yy          zz          yz          xz          xy
        77.82944    73.30271    77.91683    -0.50864    -4.96702    -0.36516
END_CFG

BEGIN_CFG
 Size
    27
 Supercell
         0.000000      5.415000      5.415000
         5.415000      0.000000      5.415000
         5.415000      5.415000      0.000000
 AtomData:  id type       cartes_x      cartes_y      cartes_z           fx          fy          fz
             1    0       0.003141     -0.020974      0.012311    -1.427324    0.627354   -1.427482
             2    1       1.832667      1.748311     -0.034807    -0.349858   -0.028899    0.911260
             3    2       3.617167      3.601132     -0.000407     0.296570    0.266197   -0.136162
             4    2       1.776358      0.031257      1.834681     0.458305   -0.419015    0.094554
             5    0       3.612106      1.826347      1.812368     0.473699   -1.182308   -1.022990
             6    1       5.391508      3.620078      1.778566     0.410924   -0.188250    0.381104
             7    2       3.644103     -0.001343      3.606298     0.090230    0.106986    0.420849
             8    2       5.390914      1.842989      3.604395     0.293020   -1.117759    0.076123
             9    0       7.210470      3.604968      3.619115    -0.374307    0.988536   -1.059070
            10    1       0.010340      1.813349      1.818960    -0.155218   -0.557968    0.057976
            11    2       1.883476      3.600399      1.788942    -0.441558    0.641485    0.310888
            12    2       3.576621      5.436784      1.844772    -0.156297   -0.146033   -0.500188
            13    0       1.800816      1.786635      3.594177    -0.415282   -0.054708    1.026366
            14    1       3.627590      3.635947      3.624943    -0.276463    0.782896   -0.013236
            15    2       5.388571      5.425584      3.613781    -0.121769    0.128159   -0.049603
            16    2       3.617469      1.830599      5.422847    -0.117826   -0.967920   -0.075420
            17    0       5.427477      3.611215      5.419698    -0.531159   -0.220007   -0.148374
            18    1       7.243226      5.378605      5.409580     1.214628    1.383029    0.771364
            19    2      -0.015810      3.589777      3.602921     0.371178    0.444031    0.467188
            20    2       1.857422      5.383374      3.639515    -0.778002   -0.059764   -0.958473
            21    0       3.578073      7.208821      3.615303     1.644905   -1.488807    0.496531
            22    1       1.820510      3.629030      5.436407    -0.467573   -0.667642   -0.410450
            23    2       3.597629      5.401091      5.443423     0.325932    0.435479   -0.264776
            24    2       5.406481      7.174507      5.372914    -0.063164    0.287364    0.215008
            25    0       3.589841      3.622259      7.222416    -0.152854    0.762767   -0.015809
            26    1       5.437722      5.406491      7.230129     0.805834    0.774796    1.224106
            27    2       7.240950      7.203612      7.235231    -0.556571   -0.530002   -0.371284
 Energy
          7.581008569097
 PlusStress:  xx          yy          zz          yz          xz          xy
        78.55224    73.90443    78.73343    -0.52809    -4.80414    -0.41857
END_CFG

BEGIN_CFG
 Size
    27
 Supercell
         0.000000      5.415000      5.415000
         5.415000      0.000000      5.415000
         5.415000      5.415000      0.000000
 AtomData:  id type       cartes_x      cartes_y      cartes_z           fx          fy          fz
             1    0       0.002104     -0.030474      0.015859    -1.466388    0.918539   -1.501006
             2    1       1.845833      1.719491     -0.049660    -0.829245    0.367179    1.292376
             3    2       3.622587      3.598377     -0.001193     0.254881    0.185297   -0.271240
             4    2       1.764528      0.044921      1.850258     0.555385   -0.653864   -0.020171
             5    0       3.613953      1.835021      1.814213     0.555608   -1.446006   -1.038069
             6    1       5.380906      3.624537      1.766328     0.587742   -0.280307    0.619039
             7    2       3.661987     -0.001459      3.606881    -0.063394    0.133527    0.411753
             8    2       5.380332      1.855778      3.601993     0.429454   -1.235570    0.133472
             9    0       7.205053      3.604223      3.621852    -0.389947    0.968207   -1.184798
            10    1       0.015120      1.815566      1.826404    -0.318850   -0.431369   -0.205914
            11    2       1.920887      3.599324      1.782781    -0.819652    0.599637    0.308940
            12    2       3.558589      5.446968      1.862140     0.123354   -0.206275   -0.737115
            13    0       1.797848      1.777221      3.587957    -0.168206    0.218459    1.350117
            14    1       3.635578      3.651831      3.632356    -0.342119    0.431724   -0.019691
            15    2       5.374375      5.431816      3.615383     0.032418    0.006337   -0.047404
            16    2       3.620590      1.837904      5.426354    -0.136159   -1.022973   -0.094612
            17    0       5.432710      3.611445      5.421616    -0.464507   -0.278247    0.093718
            18    1       7.259071      5.364806      5.409429     1.095865    1.604685    0.728494
            19    2      -0.021833      3.582159      3.602043     0.463061    0.458064    0.503663
            20    2       1.879692      5.367314      3.649011    -1.150975   -0.057117   -1.070298
            21    0       3.564911      7.200382      3.619003     1.974712   -1.209151    0.253903
            22    1       1.826848      3.636638      5.445901    -0.644307   -0.945223   -0.558776
            23    2       3.592950      5.396623      5.456005     0.540827    0.446335   -0.195480
            24    2       5.401696      7.153276      5.352668     0.019800    0.411342    0.454793
            25    0       3.579301      3.629785      7.223519     0.121862    0.657805    0.139349
            26    1       5.451848      5.404887      7.239487     0.763017    0.723277    1.116024
            27    2       7.248620      7.192124      7.240980    -0.724239   -0.364312   -0.461064
 Energy
          7.789614741806
 PlusStress:  xx          yy          zz          yz          xz          xy
        79.61225    74.79759    79.85274    -0.49093    -4.61649    -0.59391
END_CFG

BEGIN_CFG
 Size
    27
 Supercell
         0.000000      5.415000      5.415000
         5.415000      0.000000      5.415000
         5.415000      5.415000      0.000000
 AtomData:  id type       cartes_x      cartes_y      cartes_z           fx          fy          fz
             1    0      -0.000758     -0.038823      0.017535    -1.448145    1.171651   -1.531656
             2    1       1.857131      1.691515     -0.061685    -1.270245    0.756905    1.621163
             3    2       3.629052      3.596362     -0.003039     0.193059    0.080985   -0.406205
             4    2       1.754877      0.056071      1.865780     0.629021   -0.872433   -0.163398
             5    0       3.616473      1.841918      1.814796     0.610861   -1.671550   -1.009793
             6    1       5.371641      3.628294      1.755433     0.727100   -0.356910    0.852308
             7    2       3.679654     -0.001068      3.609068    -0.224116    0.153319    0.373092
             8    2       5.371398      1.863774      3.600163     0.536231   -1.269928    0.187940
             9    0       7.199172      3.604647      3.623140    -0.379707    0.897961   -1.238256
            10    1       0.019165      1.816848      1.833353    -0.482424   -0.299811   -0.440479
            11    2       1.955109      3.600517      1.777860    -1.173979    0.534601    0.318335
            12    2       3.541090      5.456377      1.876588     0.422136   -0.270849   -0.951526
            13    0       1.794716      1.768110      3.583438     0.076842    0.480420    1.612833
            14    1       3.642803      3.668624      3.639720    -0.364961    0.034793   -0.036801
            15    2       5.360285      5.438034      3.616799     0.207492   -0.120391   -0.053617
            16    2       3.623168      1.841164      5.429440    -0.141879   -1.011056   -0.104995
            17    0       5.437369      3.611311      5.423637    -0.386762   -0.290848    0.315897
            18    1       7.277435      5.354697      5.410860     0.909398    1.734572    0.652716
            19    2      -0.026079      3.576290      3.603169     0.526980    0.444740    0.500919
            20    2       1.897422      5.351067      3.654412    -1.484772   -0.039086   -1.124008
            21    0       3.554167      7.190489      3.623022     2.227769   -0.872610    0.005005
            22    1       1.831674      3.642097      5.454123    -0.789525   -1.161204   -0.677908
            23    2       3.590346      5.393906      5.467862     0.737333    0.423618   -0.127617
            24    2       5.397026      7.133751      5.334207     0.103392    0.527254    0.692666
            25    0       3.568876      3.638078      7.224797     0.400352    0.525578    0.297861
            26    1       5.467736      5.404952      7.251447     0.678172    0.620421    0.952691
            27    2       7.253482      7.179245      7.244972    -0.839623   -0.150141   -0.517166
 Energy
          8.027418462001
 PlusStress:  xx          yy          zz          yz          xz          xy
        80.82244    75.77460    81.12696    -0.42090    -4.42353    -0.78249
END_CFG

BEGIN_CFG
 Size
    27
 Supercell
         0.000000      5.415000      5.415000
         5.415000      0.000000      5.415000
         5.415000      5.415000      0.000000
 AtomData:  id type       cartes_x      cartes_y      cartes_z           fx          fy          fz
             1    0      -0.005418     -0.045708      0.017307    -1.376540    1.369921   -1.510320
             2    1       1.865586      1.665239     -0.070170    -1.635291    1.121919    1.866892
             3    2       3.636325      3.594680     -0.006451     0.112728   -0.038686   -0.521006
             4    2       1.747670      0.063877      1.880694     0.673152   -1.050741   -0.321204
             5    0       3.619732      1.846760      1.814156     0.631483   -1.842592   -0.942554
             6    1       5.364043      3.631159      1.746391     0.827312   -0.420147    1.056077
             7    2       3.696487     -0.000104      3.612697    -0.387677    0.164005    0.303106
             8    2       5.364494      1.866879      3.599123     0.611397   -1.226961    0.238838
             9    0       7.192844      3.606153      3.622911    -0.345997    0.785363   -1.215774
            10    1       0.022119      1.817492      1.839274    -0.624964   -0.178155   -0.625309
            11    2       1.984806      3.603700      1.774183    -1.467306    0.435039    0.320198
            12    2       3.525288      5.464766      1.887316     0.722708   -0.334796   -1.123209
            13    0       1.791734      1.759631      3.580953     0.309377    0.725626    1.797750
            14    1       3.649214      3.685434      3.646998    -0.359771   -0.387642   -0.062456
            15    2       5.346969      5.443733      3.617992     0.397117   -0.240601   -0.069338
            16    2       3.625168      1.840429      5.432042    -0.135259   -0.934178   -0.106391
            17    0       5.441542      3.610793      5.426036    -0.295049   -0.267511    0.504401
            18    1       7.297895      5.348586      5.413695     0.665106    1.766730    0.542702
            19    2      -0.028335      3.572096      3.606319     0.556218    0.404261    0.467560
            20    2       1.909378      5.334696      3.655568    -1.749705    0.009808   -1.104464
            21    0       3.546146      7.179557      3.627058     2.367801   -0.513057   -0.223522
            22    1       1.834662      3.644933      5.460801    -0.892850   -1.307225   -0.769636
            23    2       3.590539      5.392852      5.479268     0.886788    0.370645   -0.077527
            24    2       5.392792      7.116382      5.318447     0.191778    0.639023    0.923499
            25    0       3.558896      3.646974      7.226436     0.667142    0.372388    0.444381
            26    1       5.485197      5.406457      7.265638     0.547459    0.471643    0.745328
            27    2       7.255094      7.165820      7.246992    -0.897158    0.105920   -0.538023
 Energy
          8.251737583744
 PlusStress:  xx          yy          zz          yz          xz          xy
        81.99928    76.73175    82.34769    -0.30139    -4.17217    -0.93504
END_CFG

BEGIN_CFG
 Size
    27
 Supercell
         0.000000      5.415000      5.415000
         5.415000      0.000000      5.415000
         5.415000      5.415000      0.000000
 AtomData:  id type       cartes_x      cartes_y      cartes_z           fx          fy          fz
             1    0      -0.011779     -0.050883      0.015212    -1.261603    1.497188   -1.426233
             2    1       1.870408      1.641432     -0.074601    -1.875238    1.423624    1.992919
             3    2       3.644094      3.592863     -0.011862     0.017373   -0.161240   -0.592905
             4    2       1.743053      0.067675      1.894400     0.682395   -1.161911   -0.475430
             5    0       3.623749      1.849342      1.812376     0.611768   -1.943763   -0.842307
             6    1       5.358349      3.632990      1.739656     0.882937   -0.462625    1.209200
             7    2       3.711865      0.001462      3.617482    -0.549532    0.163635    0.201156
             8    2       5.359887      1.865286      3.599078     0.655479   -1.116369    0.285068
             9    0       7.186114      3.608609      3.621186    -0.292358    0.640491   -1.118992
            10    1       0.023674      1.817775      1.843746    -0.720186   -0.075426   -0.744190
            11    2       2.008881      3.608486      1.771750    -1.681143    0.296724    0.314745
            12    2       3.512334      5.471892      1.893718     1.004313   -0.394250   -1.232508
            13    0       1.789191      1.752080      3.580738     0.508607    0.935064    1.886781
            14    1       3.654830      3.701334      3.654131    -0.340664   -0.796111   -0.094571
            15    2       5.335141      5.448432      3.618887     0.598838   -0.341476   -0.085491
            16    2       3.626609      1.836009      5.434139    -0.116342   -0.796007   -0.099776
            17    0       5.445328      3.609928      5.429047    -0.199290   -0.211235    0.649532
            18    1       7.319896      5.346556      5.417685     0.369478    1.700273    0.394270
            19    2      -0.028508      3.569406      3.611381     0.555537    0.338148    0.402914
            20    2       1.914608      5.318392      3.652606    -1.908186    0.098647   -1.002322
            21    0       3.541012      7.168025      3.630835     2.366515   -0.169682   -0.404165
            22    1       1.835588      3.644840      5.465726    -0.939367   -1.372233   -0.833340
            23    2       3.594070      5.393253      5.490426     0.964265    0.295801   -0.058960
            24    2       5.389299      7.101562      5.306239     0.274439    0.736136    1.126530
            25    0       3.549681      3.656287      7.228605     0.909183    0.204995    0.563975
            26    1       5.503926      5.409062      7.281585     0.364659    0.284167    0.502305
            27    2       7.253271      7.152840      7.246977    -0.881879    0.387436   -0.518206
 Energy
          8.420827050154
 PlusStress:  xx          yy          zz          yz          xz          xy
        82.91939    77.42826    83.31858    -0.16202    -3.85590    -0.97751
END_CFG

BEGIN_CFG
 Size
    27
 Supercell
         0.000000      5.415000      5.415000
         5.415000      0.000000      5.415000
         5.415000      5.415000      0.000000
 AtomData:  id type       cartes_x      cartes_y      cartes_z           fx          fy          fz
             1    0      -0.019692     -0.054192      0.011363    -1.109440    1.540693   -1.279354
             2    1       1.871081      1.620725     -0.074728    -1.954760    1.637029    1.977581
             3    2       3.651987      3.590418     -0.019551    -0.088109   -0.279830   -0.610507
             4    2       1.741035      0.067062      1.906318     0.653806   -1.182237   -0.608137
             5    0       3.628494      1.849542      1.809580     0.550441   -1.964750   -0.715526
             6    1       5.354690      3.633709      1.735577     0.887462   -0.474431    1.295551
             7    2       3.725177      0.003609      3.623011    -0.706336    0.148968    0.068769
             8    2       5.357733      1.859442      3.600214     0.670242   -0.950205    0.324661
             9    0       7.179050      3.611844      3.618078    -0.220521    0.476194   -0.954506
            10    1       0.023618      1.817918      1.846499    -0.754477   -0.003764   -0.785988
            11    2       2.026560      3.614367      1.770546    -1.797442    0.126331    0.300609
            12    2       3.503281      5.477544      1.895463     1.236721   -0.439309   -1.247863
            13    0       1.787330      1.745705      3.582903     0.658338    1.088666    1.862773
            14    1       3.659704      3.715439      3.661046    -0.327965   -1.149503   -0.131349
            15    2       5.325531      5.451735      3.619384     0.798280   -0.411286   -0.098342
            16    2       3.627561      1.828459      5.435744    -0.084963   -0.601608   -0.087108
            17    0       5.448829      3.608789      5.432855    -0.106254   -0.130917    0.745864
            18    1       7.342775      5.348459      5.422514     0.039355    1.539424    0.217894
            19    2      -0.026614      3.567951      3.618111     0.528550    0.249526    0.308923
            20    2       1.912562      5.302489      3.645947    -1.922328    0.225091   -0.817565
            21    0       3.538762      7.156304      3.634131     2.214398    0.121270   -0.516406
            22    1       1.834358      3.641693      5.468755    -0.925013   -1.353623   -0.862935
            23    2       3.601210      5.394818      5.501420     0.955594    0.210594   -0.079544
            24    2       5.386841      7.089612      5.298315     0.350398    0.809339    1.281430
            25    0       3.541528      3.665815      7.231441     1.117058    0.029747    0.644320
            26    1       5.523496      5.412332      7.298731     0.122737    0.067876    0.227841
            27    2       7.248115      7.141384      7.245016    -0.785772    0.670715   -0.461088
 Energy
          8.504652570736
 PlusStress:  xx          yy          zz          yz          xz          xy
        83.40462    77.66280    83.83025    -0.07172    -3.46023    -0.83913
END_CFG

BEGIN_CFG
 Size
    27
 Supercell
         0.000000      5.415000      5.415000
         5.415000      0.000000      5.415000
         5.415000      5.415000      0.000000
 AtomData:  id type       cartes_x      cartes_y      cartes_z           fx          fy          fz
             1    0      -0.028960     -0.055580      0.005950    -0.928801    1.492981   -1.075045
             2    1       1.867434      1.603577     -0.070598    -1.853122    1.759812    1.821969
             3    2       3.659586      3.586871     -0.029592    -0.201037   -0.386011   -0.565612
             4    2       1.741485      0.061977      1.915956     0.588433   -1.098241   -0.706695
             5    0       3.633886      1.847338      1.805924     0.452094   -1.903757   -0.568291
             6    1       5.353085      3.633304      1.734352     0.839947   -0.456323    1.301680
             7    2       3.735844      0.006269      3.628753    -0.852053    0.119486   -0.089252
             8    2       5.358081      1.850005      3.602692     0.657944   -0.741880    0.354427
             9    0       7.171739      3.615665      3.613786    -0.133072    0.302342   -0.732990
            10    1       0.021870      1.818071      1.847443    -0.730499    0.027354   -0.743754
            11    2       2.037448      3.620719      1.770515    -1.805600   -0.062862    0.274448
            12    2       3.498988      5.481558      1.892564     1.392717   -0.468337   -1.153896
            13    0       1.786334      1.740688      3.587419     0.750854    1.177283    1.721466
            14    1       3.663875      3.726982      3.667661    -0.340582   -1.414639   -0.171526
            15    2       5.318842      5.453368      3.619392     0.975160   -0.441371   -0.104127
            16    2       3.628152      1.818553      5.436905    -0.041067   -0.357498   -0.071034
            17    0       5.452150      3.607484      5.437588    -0.022090   -0.036358    0.791665
            18    1       7.365793      5.353926      5.427813    -0.305850    1.293535    0.032745
            19    2      -0.022769      3.567388      3.626142     0.477006    0.143035    0.190293
            20    2       1.903216      5.287456      3.636285    -1.764774    0.375468   -0.558482
            21    0       3.539217      7.144744      3.636801     1.927578    0.335013   -0.553540
            22    1       1.831011      3.635542      5.469819    -0.851524   -1.257589   -0.854714
            23    2       3.611923      5.397218      5.512186     0.861320    0.126332   -0.138976
            24    2       5.385694      7.080761      5.295227     0.416011    0.851724    1.371966
            25    0       3.534698      3.675349      7.235034     1.285695   -0.148717    0.678162
            26    1       5.543343      5.415765      7.316447    -0.183201   -0.163166   -0.077911
            27    2       7.240025      7.132538      7.241335    -0.611487    0.932383   -0.372975
 Energy
          8.495365636903
 PlusStress:  xx          yy          zz          yz          xz          xy
        83.38767    77.42038    83.82852    -0.03809    -2.98153    -0.49126
END_CFG

BEGIN_CFG
 Size
    27
 Supercell
         0.000000      5.415000      5.415000
         5.415000      0.000000      5.415000
         5.415000      5.415000      0.000000
 AtomData:  id type       cartes_x      cartes_y      cartes_z           fx          fy          fz
             1    0      -0.039360     -0.055110     -0.000766    -0.730261    1.353643   -0.825195
             2    1       1.859672      1.590259     -0.062548    -1.590332    1.799709    1.557026
             3    2       3.666460      3.581812     -0.041828    -0.312265   -0.466569   -0.460314
             4    2       1.744137      0.052744      1.922958     0.491667   -0.911687   -0.767378
             5    0       3.639797      1.842801      1.801586     0.326646   -1.767103   -0.404338
             6    1       5.353433      3.631828      1.736003     0.741734   -0.411821    1.223843
             7    2       3.743341      0.009325      3.634082    -0.975412    0.079949   -0.263680
             8    2       5.360876      1.837794      3.606633     0.620606   -0.505566    0.369811
             9    0       7.164284      3.619865      3.608580    -0.034902    0.121374   -0.465474
            10    1       0.018486      1.818298      1.846672    -0.650562    0.022519   -0.627827
            11    2       2.041543      3.626838      1.771555    -1.710858   -0.255790    0.235813
            12    2       3.500031      5.483831      1.885411     1.454124   -0.484439   -0.954053