BEGIN_CFG
 Size
    27
 Supercell
         0.000000      5.415000      5.415000
         5.415000      0.000000      5.415000
         5.415000      5.415000      0.000000
 AtomData:  id type       cartes_x      cartes_y      cartes_z           fx          fy          fz
             1    0       0.000000      0.000000      0.000000    -1.194437   -0.002906   -1.194437
             2    1       1.805000      1.805000      0.000000     0.573719   -0.733877    0.105215
             3    2       3.610000      3.610000      0.000000     0.334163    0.347696    0.074434
             4    2       1.805000      0.000000      1.805000     0.224626    0.040200    0.224626
             5    0       3.610000      1.805000      1.805000     0.248120   -0.586916   -0.863108
             6    1       5.415000      3.610000      1.805000    -0.035470    0.025156   -0.058992
             7    2       3.610000      0.000000      3.610000     0.370733    0.044690    0.370733
             8    2       5.415000      1.805000      3.610000    -0.012467   -0.681466   -0.033225
             9    0       7.220000      3.610000      3.610000    -0.266472    0.856723   -0.623284
            10    1       0.000000      1.805000      1.805000     0.105215   -0.733877    0.573719
            11    2       1.805000      3.610000      1.805000     0.322421    0.672176    0.322421
            12    2       3.610000      5.415000      1.805000    -0.629762   -0.042454   -0.009644
            13    0       1.805000      1.805000      3.610000    -0.863108   -0.586916    0.248120
            14    1       3.610000      3.610000      3.610000    -0.039662    1.305768   -0.039662
            15    2       5.415000      5.415000      3.610000    -0.360894    0.334313   -0.061079
            16    2       3.610000      1.805000      5.415000    -0.033225   -0.681466   -0.012467
            17    0       5.415000      3.610000      5.415000    -0.619180   -0.004511   -0.619180
            18    1       7.220000      5.415000      5.415000     1.257659    0.715818    0.768893
            19    2       0.000000      3.610000      3.610000     0.074434    0.347696    0.334163
            20    2       1.805000      5.415000      3.610000    -0.009644   -0.042454   -0.629762
            21    0       3.610000      7.220000      3.610000     0.886944   -1.816496    0.886944
            22    1       1.805000      3.610000      5.415000    -0.058992    0.025156   -0.035470
            23    2       3.610000      5.415000      5.415000    -0.061079    0.334313   -0.360894
            24    2       5.415000      7.220000      5.415000    -0.263396    0.004344   -0.263396
            25    0       3.610000      3.610000      7.220000    -0.623284    0.856723   -0.266472
            26    1       5.415000      5.415000      7.220000     0.768893    0.715818    1.257659
            27    2       7.220000      7.220000      7.220000    -0.095854   -0.713254   -0.095854
 Energy
          7.362007908414
 PlusStress:  xx          yy          zz          yz          xz          xy
        79.20208    74.91989    79.20208    -0.40723    -4.78086    -0.40723
END_CFG

BEGIN_CFG
 Size
    27
 Supercell
         0.000000      5.415000      5.415000
         5.415000      0.000000      5.415000
         5.415000      5.415000      0.000000
 AtomData:  id type       cartes_x      cartes_y      cartes_z           fx          fy          fz
             1    0       0.002399     -0.010685      0.006978    -1.352864    0.324360   -1.343426
             2    1       1.818698      1.777096     -0.017959     0.121147   -0.393953    0.496749
             3    2       3.612946      3.604940     -0.000163     0.335649    0.329608   -0.021457
             4    2       1.789998      0.015981      1.819493     0.358707   -0.185777    0.182800
             5    0       3.610830      1.816221      1.809274     0.363621   -0.893396   -0.963728
             6    1       5.403032      3.615147      1.791623     0.198492   -0.096447    0.143069
             7    2       3.626591     -0.000818      3.607360     0.242505    0.077265    0.415515
             8    2       5.402661      1.825818      3.607142     0.156017   -0.960601    0.029100
             9    0       7.215437      3.606907      3.615087    -0.329410    0.942174   -0.864280
            10    1       0.005191      1.809909      1.811622    -0.018236   -0.656659    0.320343
            11    2       1.844346      3.603925      1.796348    -0.056842    0.671399    0.328474
            12    2       3.594087      5.426060      1.825400    -0.409080   -0.088491   -0.270895
            13    0       1.803301      1.796010      3.601682    -0.641953   -0.314057    0.663726
            14    1       3.618987      3.621778      3.617496    -0.171497    1.069635   -0.021593
            15    2       5.402279      5.419833      3.611994    -0.259855    0.241757   -0.054776
            16    2       3.613892      1.819467      5.419020    -0.083120   -0.878835   -0.050868
            17    0       5.421595      3.610691      5.417591    -0.582211   -0.137367   -0.395180
            18    1       7.230169      5.395573      5.411422     1.291090    1.100036    0.776336
            19    2      -0.008366      3.599105      3.605658     0.242785    0.412667    0.422931
            20    2       1.832019      5.399260      3.626317    -0.425935   -0.038485   -0.821609
            21    0       3.593255      7.215448      3.612215     1.276283   -1.693955    0.713110
            22    1       1.813072      3.619901      5.425973    -0.283241   -0.345414   -0.241490
            23    2       3.603577      5.407272      5.429832     0.125066    0.407379   -0.327058
            24    2       5.411040      7.196936      5.394003    -0.157809    0.167208   -0.024509
            25    0       3.600173      3.615632      7.221300    -0.412486    0.812678   -0.150232
            26    1       5.425445      5.409869      7.223607     0.819586    0.783500    1.303409
            27    2       7.231133      7.213051      7.228079    -0.346408   -0.656231   -0.244465
 Energy
          7.422333048575
 PlusStress:  xx          yy          zz          yz          xz          xy
        79.43794    75.09974    79.52274    -0.50184    -4.67947    -0.36394
END_CFG

BEGIN_CFG
 Size
    27
 Supercell
         0.000000      5.415000      5.415000
         5.415000      0.000000      5.415000
         5.415000      5.415000      0.000000
 AtomData:  id type       cartes_x      cartes_y      cartes_z           fx          fy          fz
             1    0       0.003141     -0.020974      0.012311    -1.452715    0.643446   -1.456823
             2    1       1.832667      1.748311     -0.034807    -0.359106   -0.015796    0.891971
             3    2       3.617167      3.601132     -0.000407     0.316188    0.277552   -0.142963
             4    2       1.776358      0.031257      1.834681     0.476956   -0.424556    0.102648
             5    0       3.612106      1.826347      1.812368     0.466768   -1.185762   -1.019636
             6    1       5.391508      3.620078      1.778566     0.412629   -0.211231    0.366242
             7    2       3.644103     -0.001343      3.606298     0.098148    0.107813    0.433554
             8    2       5.390914      1.842989      3.604395     0.306737   -1.154421    0.090976
             9    0       7.210470      3.604968      3.619115    -0.367484    0.975040   -1.054620
            10    1       0.010340      1.813349      1.818960    -0.165777   -0.547139    0.047072
            11    2       1.883476      3.600399      1.788942    -0.452742    0.645774    0.327804
            12    2       3.576621      5.436784      1.844772    -0.149187   -0.142473   -0.527956
            13    0       1.800816      1.786635      3.594177    -0.394047   -0.032331    1.049480
            14    1       3.627590      3.635947      3.624943    -0.275609    0.766629   -0.015421
            15    2       5.388571      5.425584      3.613781    -0.128633    0.126480   -0.048741
            16    2       3.617469      1.830599      5.422847    -0.119979   -1.007884   -0.084555
            17    0       5.427477      3.611215      5.419698    -0.530720   -0.238964   -0.154617
            18    1       7.243226      5.378605      5.409580     1.246756    1.416772    0.756150
            19    2      -0.015810      3.589777      3.602921     0.374560    0.450757    0.489576
            20    2       1.857422      5.383374      3.639515    -0.825061   -0.045808   -0.975429
            21    0       3.578073      7.208821      3.615303     1.648625   -1.479112    0.499468
            22    1       1.820510      3.629030      5.436407    -0.492222   -0.680095   -0.419698
            23    2       3.597629      5.401091      5.443423     0.334300    0.451173   -0.265844
            24    2       5.406481      7.174507      5.372914    -0.059740    0.315673    0.222195
            25    0       3.589841      3.622259      7.222416    -0.169314    0.734326   -0.010295
            26    1       5.437722      5.406491      7.230129     0.826474    0.793683    1.268795
            27    2       7.240950      7.203612      7.235231    -0.565804   -0.539546   -0.369332
 Energy
          7.572008994974
 PlusStress:  xx          yy          zz          yz          xz          xy
        79.93398    75.48060    80.11191    -0.53744    -4.55041    -0.40846
END_CFG

BEGIN_CFG
 Size
    27
 Supercell
         0.000000      5.415000      5.415000
         5.415000      0.000000      5.415000
         5.415000      5.415000      0.000000
 AtomData:  id type       cartes_x      cartes_y      cartes_z           fx          fy          fz
             1    0       0.002104     -0.030474      0.015859    -1.490515    0.939444   -1.529476
             2    1       1.845833      1.719491     -0.049660    -0.835461    0.377680    1.264781
             3    2       3.622587      3.598377     -0.001193     0.275103    0.194963   -0.278843
             4    2       1.764528      0.044921      1.850258     0.573881   -0.662569   -0.014524
             5    0       3.613953      1.835021      1.814213     0.549486   -1.451940   -1.030593
             6    1       5.380906      3.624537      1.766328     0.597409   -0.313909    0.600212
             7    2       3.661987     -0.001459      3.606881    -0.057419    0.133387    0.422430
             8    2       5.380332      1.855778      3.601993     0.434338   -1.262706    0.150863
             9    0       7.205053      3.604223      3.621852    -0.379050    0.954120   -1.182383
            10    1       0.015120      1.815566      1.826404    -0.327969   -0.418359   -0.221026
            11    2       1.920887      3.599324      1.782781    -0.840307    0.597403    0.326838
            12    2       3.558589      5.446968      1.862140     0.140676   -0.203731   -0.769436
            13    0       1.797848      1.777221      3.587957    -0.133888    0.248007    1.388106
            14    1       3.635578      3.651831      3.632356    -0.340549    0.406795   -0.021487
            15    2       5.374375      5.431816      3.615383     0.027925   -0.003256   -0.048775
            16    2       3.620590      1.837904      5.426354    -0.143096   -1.065729   -0.110711
            17    0       5.432710      3.611445      5.421616    -0.468139   -0.298364    0.085085
            18    1       7.259071      5.364806      5.409429     1.126738    1.650103    0.707316
            19    2      -0.021833      3.582159      3.602043     0.467853    0.460427    0.527879
            20    2       1.879692      5.367314      3.649011    -1.196314   -0.049231   -1.078715
            21    0       3.564911      7.200382      3.619003     1.975453   -1.188230    0.259859
            22    1       1.826848      3.636638      5.445901    -0.675707   -0.960656   -0.569132
            23    2       3.592950      5.396623      5.456005     0.546738    0.461692   -0.190989
            24    2       5.401696      7.153276      5.352668     0.030538    0.449273    0.470279
            25    0       3.579301      3.629785      7.223519     0.093730    0.625757    0.142417
            26    1       5.451848      5.404887      7.239487     0.788307    0.746214    1.162954
            27    2       7.248620      7.192124      7.240980    -0.739760   -0.366586   -0.462930
 Energy
          7.786708201991
 PlusStress:  xx          yy          zz          yz          xz          xy
        80.60198    75.98095    80.87667    -0.52583    -4.39618    -0.51994
END_CFG

BEGIN_CFG
 Size
    27
 Supercell
         0.000000      5.415000      5.415000
         5.415000      0.000000      5.415000
         5.415000      5.415000      0.000000
 AtomData:  id type       cartes_x      cartes_y      cartes_z           fx          fy          fz
             1    0      -0.000758     -0.038823      0.017535    -1.467677    1.196029   -1.554405
             2    1       1.857131      1.691515     -0.061685    -1.271117    0.760072    1.583161
             3    2       3.629052      3.596362     -0.003039     0.212768    0.087820   -0.412992
             4    2       1.754877      0.056071      1.865780     0.644005   -0.880820   -0.159982
             5    0       3.616473      1.841918      1.814796     0.603051   -1.677224   -0.999216
             6    1       5.371641      3.628294      1.755433     0.745617   -0.399214    0.828894
             7    2       3.679654     -0.001068      3.609068    -0.219473    0.151082    0.379972
             8    2       5.371398      1.863774      3.600163     0.534603   -1.288440    0.208040
             9    0       7.199172      3.604647      3.623140    -0.365035    0.884344   -1.239347
            10    1       0.019165      1.816848      1.833353    -0.488203   -0.284923   -0.459928
            11    2       1.955109      3.600517      1.777860    -1.192068    0.524324    0.327571
            12    2       3.541090      5.456377      1.876588     0.446805   -0.268978   -0.979818
            13    0       1.794716      1.768110      3.583438     0.122485    0.515773    1.662098
            14    1       3.642803      3.668624      3.639720    -0.364333    0.007264   -0.038696
            15    2       5.360285      5.438034      3.616799     0.203875   -0.137141   -0.058705
            16    2       3.623168      1.841164      5.429440    -0.152256   -1.052499   -0.127302
            17    0       5.437369      3.611311      5.423637    -0.396314   -0.312346    0.307744
            18    1       7.277435      5.354697      5.410860     0.937475    1.788284    0.627884
            19    2      -0.026079      3.576290      3.603169     0.524577    0.441639    0.533357
            20    2       1.897422      5.351067      3.654412    -1.520926   -0.032591   -1.118402
            21    0       3.554167      7.190489      3.623022     2.222882   -0.847521    0.014534
            22    1       1.831674      3.642097      5.454123    -0.822540   -1.173409   -0.690508
            23    2       3.590346      5.393906      5.467862     0.737046    0.437869   -0.118760
            24    2       5.397026      7.133751      5.334207     0.114849    0.568210    0.711712
            25    0       3.568876      3.638078      7.224797     0.362942    0.492450    0.294801
            26    1       5.467736      5.404952      7.251447     0.703097    0.643874    0.997856
            27    2       7.253482      7.179245      7.244972    -0.856137   -0.143926   -0.519563
 Energy
          8.029542888048
 PlusStress:  xx          yy          zz          yz          xz          xy
        81.32080    76.48544    81.68696    -0.48825    -4.21052    -0.66065
END_CFG

BEGIN_CFG
 Size
    27
 Supercell
         0.000000      5.415000      5.415000
         5.415000      0.000000      5.415000
         5.415000      5.415000      0.000000
 AtomData:  id type       cartes_x      cartes_y      cartes_z           fx          fy          fz
             1    0      -0.005418     -0.045708      0.017307    -1.389948    1.396280   -1.524087
             2    1       1.865586      1.665239     -0.070170    -1.624727    1.104247    1.812831
             3    2       3.636325      3.594680     -0.006451     0.130829   -0.035678   -0.526354
             4    2       1.747670      0.063877      1.880694     0.682240   -1.055701   -0.318444
             5    0       3.619732      1.846760      1.814156     0.619599   -1.845893   -0.930254
             6    1       5.364043      3.631159      1.746391     0.851507   -0.461869    1.031910
             7    2       3.696487     -0.000104      3.612697    -0.383368    0.158338    0.304586
             8    2       5.364494      1.866879      3.599123     0.605291   -1.237771    0.261909
             9    0       7.192844      3.606153      3.622911    -0.328294    0.774867   -1.221499
            10    1       0.022119      1.817492      1.839274    -0.625698   -0.161730   -0.648111
            11    2       1.984806      3.603700      1.774183    -1.481078    0.422322    0.327972
            12    2       3.525288      5.464766      1.887316     0.750311   -0.332725   -1.139480
            13    0       1.791734      1.759631      3.580953     0.358170    0.757933    1.853100
            14    1       3.649214      3.685434      3.646998    -0.355519   -0.406663   -0.064919
            15    2       5.346969      5.443733      3.617992     0.392166   -0.263050   -0.078758
            16    2       3.625168      1.840429      5.432042    -0.147419   -0.970717   -0.133412
            17    0       5.441542      3.610793      5.426036    -0.316908   -0.284429    0.499784
            18    1       7.297895      5.348586      5.413695     0.688794    1.824747    0.516644
            19    2      -0.028335      3.572096      3.606319     0.548645    0.395795    0.503753
            20    2       1.909378      5.334696      3.655568    -1.771967    0.017311   -1.084650
            21    0       3.546146      7.179557      3.627058     2.357586   -0.490692   -0.211477
            22    1       1.834662      3.644933      5.460801    -0.921685   -1.309605   -0.783974
            23    2       3.590539      5.392852      5.479268     0.878978    0.383294   -0.065298
            24    2       5.392792      7.116382      5.318447     0.195227    0.671502    0.935673
            25    0       3.558896      3.646974      7.226436     0.624782    0.340566    0.433060
            26    1       5.485197      5.406457      7.265638     0.567288    0.491890    0.785581
            27    2       7.255094      7.165820      7.246992    -0.904804    0.117431   -0.536085
 Energy
          8.256506678140
 PlusStress:  xx          yy          zz          yz          xz          xy
        81.95776    76.86566    82.39832    -0.44930    -3.98030    -0.77792
END_CFG

BEGIN_CFG
 Size
    27
 Supercell
         0.000000      5.415000      5.415000
         5.415000      0.000000      5.415000
         5.415000      5.415000      0.000000
 AtomData:  id type       cartes_x      cartes_y      cartes_z           fx          fy          fz
             1    0      -0.011779     -0.050883      0.015212    -1.266238    1.524321   -1.432498
             2    1       1.870408      1.641432     -0.074601    -1.855455    1.386512    1.924650
             3    2       3.644094      3.592863     -0.011862     0.032520   -0.165508   -0.600143
             4    2       1.743053      0.067675      1.894400     0.684746   -1.162063   -0.471119
             5    0       3.623749      1.849342      1.812376     0.594327   -1.944233   -0.829562
             6    1       5.358349      3.632990      1.739656     0.910286   -0.497303    1.187511
             7    2       3.711865      0.001462      3.617482    -0.544284    0.153294    0.195987
             8    2       5.359887      1.865286      3.599078     0.646265   -1.119881    0.311257
             9    0       7.186114      3.608609      3.621186    -0.272635    0.636401   -1.129300
            10    1       0.023674      1.817775      1.843746    -0.720188   -0.062140   -0.768263
            11    2       2.008881      3.608486      1.771750    -1.684844    0.288339    0.323513
            12    2       3.512334      5.471892      1.893718     1.027777   -0.388527   -1.226964
            13    0       1.789191      1.752080      3.580738     0.557016    0.960157    1.943441
            14    1       3.654830      3.701334      3.654131    -0.331654   -0.802733   -0.097564
            15    2       5.335141      5.448432      3.618887     0.584229   -0.367995   -0.104784
            16    2       3.626609      1.836009      5.434139    -0.128517   -0.824770   -0.129428
            17    0       5.445328      3.609928      5.429047    -0.232483   -0.222578    0.651087
            18    1       7.319896      5.346556      5.417685     0.392693    1.758552    0.375221
            19    2      -0.028508      3.569406      3.611381     0.544224    0.325634    0.439301
            20    2       1.914608      5.318392      3.652606    -1.916926    0.106092   -0.974227
            21    0       3.541012      7.168025      3.630835     2.355221   -0.153861   -0.392885
            22    1       1.835588      3.644840      5.465726    -0.964390   -1.365808   -0.847858
            23    2       3.594070      5.393253      5.490426     0.950990    0.306630   -0.043382
            24    2       5.389299      7.101562      5.306239     0.272489    0.755972    1.128370
            25    0       3.549681      3.656287      7.228605     0.867131    0.176166    0.544363
            26    1       5.503926      5.409062      7.281585     0.375892    0.297876    0.535942
            27    2       7.253271      7.152840      7.246977    -0.878191    0.401454   -0.512665
 Energy
          8.425579495363
 PlusStress:  xx          yy          zz          yz          xz          xy
        82.39579    77.00915    82.88484    -0.43014    -3.69053    -0.81171
END_CFG

BEGIN_CFG
 Size
    27
 Supercell
         0.000000      5.415000      5.415000
         5.415000      0.000000      5.415000
         5.415000      5.415000      0.000000
 AtomData:  id type       cartes_x      cartes_y      cartes_z           fx          fy          fz
             1    0      -0.019692     -0.054192      0.011363    -1.107196    1.567479   -1.277561
             2    1       1.871081      1.620725     -0.074728    -1.931719    1.591045    1.903371
             3    2       3.651987      3.590418     -0.019551    -0.077119   -0.290325   -0.619744
             4    2       1.741035      0.067062      1.906318     0.650089   -1.178395   -0.600395
             5    0       3.628494      1.849542      1.809580     0.527429   -1.964008   -0.703085
             6    1       5.354690      3.633709      1.735577     0.918260   -0.502865    1.276462
             7    2       3.725177      0.003609      3.623011    -0.696907    0.135129    0.056244
             8    2       5.357733      1.859442      3.600214     0.658862   -0.946463    0.353678
             9    0       7.179050      3.611844      3.618078    -0.201716    0.478737   -0.967572
            10    1       0.023618      1.817918      1.846499    -0.757081    0.004198   -0.809157
            11    2       2.026560      3.614367      1.770546    -1.789074    0.124157    0.309258
            12    2       3.503281      5.477544      1.895463     1.253906   -0.431142   -1.223740
            13    0       1.787330      1.745705      3.582903     0.706013    1.109102    1.919783
            14    1       3.659704      3.715439      3.661046    -0.314646   -1.146068   -0.134253
            15    2       5.325531      5.451735      3.619384     0.769360   -0.439954   -0.128848
            16    2       3.627561      1.828459      5.435744    -0.095434   -0.620584   -0.116994
            17    0       5.448829      3.608789      5.432855    -0.146919   -0.136532    0.755224
            18    1       7.342775      5.348459      5.422514     0.062159    1.594249    0.210003
            19    2      -0.026614      3.567951      3.618111     0.514414    0.235067    0.342799
            20    2       1.912562      5.302489      3.645947    -1.922881    0.228882   -0.790975
            21    0       3.538762      7.156304      3.634131     2.208851    0.131040   -0.510432
            22    1       1.834358      3.641693      5.468755    -0.946433   -1.343668   -0.878635
            23    2       3.601210      5.394818      5.501420     0.941234    0.219902   -0.059788
            24    2       5.386841      7.089612      5.298315     0.345421    0.816469    1.274291
            25    0       3.541528      3.665815      7.231441     1.080388    0.004506    0.618413
            26    1       5.523496      5.412332      7.298731     0.123760    0.072534    0.254822
            27    2       7.248115      7.141384      7.245016    -0.773020    0.687508   -0.453171
 Energy
          8.507914260612
 PlusStress:  xx          yy          zz          yz          xz          xy
        82.56056    76.85027    83.07422    -0.44375    -3.33088    -0.70860
END_CFG

BEGIN_CFG
 Size
    27
 Supercell
         0.000000      5.415000      5.415000
         5.415000      0.000000      5.415000
         5.415000      5.415000      0.000000
 AtomData:  id type       cartes_x      cartes_y      cartes_z           fx          fy          fz
             1    0      -0.028960     -0.055580      0.005950    -0.924003    1.518392   -1.063451
             2    1       1.867434      1.603577     -0.070598    -1.840040    1.712741    1.753423
             3    2       3.659586      3.586871     -0.029592    -0.191382   -0.398179   -0.578069
             4    2       1.741485      0.061977      1.915956     0.580126   -1.092689   -0.694645
             5    0       3.633886      1.847338      1.805924     0.424685   -1.904813   -0.556196
             6    1       5.353085      3.633304      1.734352     0.873605   -0.478934    1.285874
             7    2       3.735844      0.006269      3.628753    -0.835005    0.104371   -0.109010
             8    2       5.358081      1.850005      3.602692     0.644975   -0.730984    0.385291
             9    0       7.171739      3.615665      3.613786    -0.118124    0.309319   -0.744964
            10    1       0.021870      1.818071      1.847443    -0.731373    0.033097   -0.767156
            11    2       2.037448      3.620719      1.770515    -1.789746   -0.061402    0.281864
            12    2       3.498988      5.481558      1.892564     1.405837   -0.458920   -1.120334
            13    0       1.786334      1.740688      3.587419     0.797614    1.195603    1.777503
            14    1       3.663875      3.726982      3.667661    -0.323556   -1.405999   -0.173340
            15    2       5.318842      5.453368      3.619392     0.934400   -0.470299   -0.141260
            16    2       3.628152      1.818553      5.436905    -0.048294   -0.365749   -0.098719
            17    0       5.452150      3.607484      5.437588    -0.065238   -0.035584    0.809124
            18    1       7.365793      5.353926      5.427813    -0.289510    1.341541    0.033278
            19    2      -0.022769      3.567388      3.626142     0.460602    0.128995    0.219517
            20    2       1.903216      5.287456      3.636285    -1.763740    0.371414   -0.542632
            21    0       3.539217      7.144744      3.636801     1.933622    0.342177   -0.556172
            22    1       1.831011      3.635542      5.469819    -0.869452   -1.248775   -0.871827
            23    2       3.611923      5.397218      5.512186     0.850224    0.134994   -0.114426
            24    2       5.385694      7.080761      5.295227     0.410670    0.847287    1.358777
            25    0       3.534698      3.675349      7.235034     1.258224   -0.170373    0.648681
            26    1       5.543343      5.415765      7.316447    -0.191925   -0.168868   -0.056350
            27    2       7.240025      7.132538      7.241335    -0.593195    0.951636   -0.364781
 Energy
          8.497141332550
 PlusStress:  xx          yy          zz          yz          xz          xy
        82.43930    76.39214    82.97191    -0.49364    -2.90077    -0.44042
END_CFG

BEGIN_CFG
 Size
    27
 Supercell
         0.000000      5.415000      5.415000
         5.415000      0.000000      5.415000
         5.415000      5.415000      0.000000
 AtomData:  id type       cartes_x      cartes_y      cartes_z           fx          fy          fz
             1    0      -0.039360     -0.055110     -0.000766    -0.727611    1.376505   -0.802081
             2    1       1.859672      1.590259     -0.062548    -1.589575    1.757126    1.498333
             3    2       3.666460      3.581812     -0.041828    -0.302514   -0.477588   -0.477189
             4    2       1.744137      0.052744      1.922958     0.480082   -0.906672   -0.751123
             5    0       3.639797      1.842801      1.801586     0.296219   -1.774180   -0.393563
             6    1       5.353433      3.631828      1.736003     0.777336   -0.429295    1.211855
             7    2       3.743341      0.009325      3.634082    -0.951020    0.063156   -0.289543
             8    2       5.360876      1.837794      3.606633     0.606388   -0.488085    0.400754
             9    0       7.164284      3.619865      3.608580    -0.022860    0.133160   -0.473175
            10    1       0.018486      1.818298      1.846672    -0.648777    0.026305   -0.646722
            11    2       2.041543      3.626838      1.771555    -1.692686   -0.252970    0.241033
            12    2       3.500031      5.483831      1.885411     1.467572   -0.475110   -0.921371