BEGIN_CFG
 Size
    32
 Supercell
         7.220000      0.000000      0.000000
         0.000000      7.220000      0.000000
         0.000000      0.000000      7.220000
 AtomData:  id type       cartes_x      cartes_y      cartes_z           fx          fy          fz
             1    0       0.000000      0.000000      0.000000     0.000000    0.000000    0.000000
             2    0       0.000000      1.805000      1.805000     0.000000    0.000000    0.000000
             3    0       1.805000      0.000000      1.805000     0.000000    0.000000   -0.000000
             4    0       1.805000      1.805000      0.000000     0.000000    0.000000    0.000000
             5    0       0.000000      0.000000      3.610000     0.000000    0.000000    0.000000
             6    0       0.000000      1.805000      5.415000     0.000000    0.000000   -0.000000
             7    0       1.805000      0.000000      5.415000     0.000000    0.000000   -0.000000
             8    0       1.805000      1.805000      3.610000    -0.000000    0.000000   -0.000000
             9    0       0.000000      3.610000      0.000000     0.000000   -0.000000    0.000000
            10    0       0.000000      5.415000      1.805000     0.000000   -0.000000    0.000000
            11    0       1.805000      3.610000      1.805000     0.000000   -0.000000    0.000000
            12    0       1.805000      5.415000      0.000000     0.000000   -0.000000    0.000000
            13    0       0.000000      3.610000      3.610000     0.000000   -0.000000    0.000000
            14    0       0.000000      5.415000      5.415000     0.000000    0.000000   -0.000000
            15    0       1.805000      3.610000      5.415000     0.000000   -0.000000   -0.000000
            16    0       1.805000      5.415000      3.610000     0.000000   -0.000000   -0.000000
            17    0       3.610000      0.000000      0.000000    -0.000000    0.000000    0.000000
            18    0       3.610000      1.805000      1.805000    -0.000000    0.000000   -0.000000
            19    0       5.415000      0.000000      1.805000    -0.000000    0.000000   -0.000000
            20    0       5.415000      1.805000      0.000000    -0.000000    0.000000    0.000000
            21    0       3.610000      0.000000      3.610000    -0.000000    0.000000    0.000000
            22    0       3.610000      1.805000      5.415000    -0.000000    0.000000   -0.000000
            23    0       5.415000      0.000000      5.415000    -0.000000   -0.000000   -0.000000
            24    0       5.415000      1.805000      3.610000    -0.000000    0.000000   -0.000000
            25    0       3.610000      3.610000      0.000000    -0.000000   -0.000000    0.000000
            26    0       3.610000      5.415000      1.805000    -0.000000   -0.000000   -0.000000
            27    0       5.415000      3.610000      1.805000    -0.000000   -0.000000   -0.000000
            28    0       5.415000      5.415000      0.000000    -0.000000   -0.000000    0.000000
            29    0       3.610000      3.610000      3.610000    -0.000000   -0.000000   -0.000000
            30    0       3.610000      5.415000      5.415000     0.000000   -0.000000   -0.000000
            31    0       5.415000      3.610000      5.415000    -0.000000   -0.000000   -0.000000
            32    0       5.415000      5.415000      3.610000    -0.000000   -0.000000    0.000000
 Energy
         -0.179384932714
 PlusStress:  xx          yy          zz          yz          xz          xy
        -5.04185    -5.04185    -5.04185     0.00000     0.00000    -0.00000
END_CFG

BEGIN_CFG
 Size
    32
 Supercell
         7.220000      0.000000      0.000000
         0.000000      7.220000      0.000000
         0.000000      0.000000      7.220000
 AtomData:  id type       cartes_x      cartes_y      cartes_z           fx          fy          fz
             1    0       0.005511     -0.018809      0.013573    -0.028442    0.089900   -0.172152
             2    0       0.017011      1.769714      1.781449    -0.083867    0.207540    0.208955
             3    0       1.807312     -0.005720      1.804696     0.056166    0.035184    0.032030
             4    0       1.789572      1.820905      0.014067     0.112574   -0.171916   -0.197482
             5    0       0.001194      0.020387      3.618455    -0.028741   -0.181381   -0.031878
             6    0      -0.015541      1.811669      5.397658     0.091771   -0.098483    0.172342
             7    0       1.820888     -0.000903      5.411657    -0.113513    0.148225    0.132344
             8    0       1.792685      1.827111      3.607205     0.127312   -0.145252    0.013829
             9    0      -0.007747      3.603631      0.009627     0.050727    0.098906   -0.011276
            10    0       0.006609      5.422465      1.812792    -0.025014   -0.091809    0.012808
            11    0       1.843734      3.602650      1.795736    -0.303165    0.070883    0.081580
            12    0       1.790282      5.426141      0.020419     0.142417   -0.089736   -0.114896
            13    0      -0.002061      3.594805      3.595088     0.078615    0.094950   -0.008551
            14    0       0.011767      5.428443      5.424823    -0.099541   -0.096171   -0.120103
            15    0       1.792964      3.614199      5.417110     0.023132    0.033015    0.022535
            16    0       1.808955      5.430761      3.614044    -0.107511   -0.157167   -0.040034
            17    0       3.622279      0.001222      0.005229    -0.146515    0.004367   -0.031960
            18    0       3.621417      1.778646      1.799218    -0.066395    0.158910    0.021861
            19    0       5.406493     -0.011555      1.800024     0.077803   -0.061181    0.085003
            20    0       5.442038      1.789341      0.017512    -0.160922    0.122044   -0.121249
            21    0       3.579564     -0.006057      3.612944     0.243975    0.058617    0.010509
            22    0       3.620602      1.817863      5.429348    -0.039042   -0.034925   -0.065807
            23    0       5.408693     -0.008362      5.430517     0.034888    0.019721   -0.170497
            24    0       5.411540      1.781928      3.589503    -0.065243    0.110535    0.097905
            25    0       3.593371      3.618992      0.002576     0.196185   -0.090802   -0.048070
            26    0       3.622488      5.407273      1.807867    -0.084914    0.076405   -0.047834
            27    0       5.426314      3.604405      1.813261    -0.086613   -0.089905   -0.118708
            28    0       5.403028      5.408434     -0.006904     0.116137   -0.046752    0.076945
            29    0       3.588372      3.618807      3.601510     0.166668   -0.116300    0.117494
            30    0       3.610226      5.423695      5.423076    -0.016167   -0.119668   -0.053300
            31    0       5.427034      3.608219      5.407344    -0.097734    0.008558    0.012401
            32    0       5.413558      5.384483      3.583828     0.034970    0.253690    0.255259
 Energy
         -0.112181387162
 PlusStress:  xx          yy          zz          yz          xz          xy
        -4.77670    -4.79261    -4.76118     0.04334    -0.00063    -0.02836
END_CFG

BEGIN_CFG
 Size
    32
 Supercell
         7.220000      0.000000      0.000000
         0.000000      7.220000      0.000000
         0.000000      0.000000      7.220000
 AtomData:  id type       cartes_x      cartes_y      cartes_z           fx          fy          fz
             1    0       0.010913     -0.037275      0.026492    -0.074855    0.168739   -0.338732
             2    0       0.033703      1.735217      1.758693    -0.182995    0.407665    0.448971
             3    0       1.809838     -0.011305      1.804515     0.117053    0.069063    0.063117
             4    0       1.774573      1.836155      0.027383     0.241906   -0.332668   -0.403372
             5    0       0.002280      0.040084      3.626787    -0.036687   -0.357738   -0.067280
             6    0      -0.030732      1.817964      5.380971     0.173046   -0.177287    0.335028
             7    0       1.836343     -0.001241      5.408817    -0.230742    0.282020    0.267800
             8    0       1.780853      1.848668      3.604462     0.249525   -0.296102    0.023609
             9    0      -0.015299      3.597638      0.019211     0.097987    0.197611   -0.026739
            10    0       0.013123      5.429580      1.820631    -0.057677   -0.176625    0.036064
            11    0       1.881313      3.595569      1.786782    -0.603546    0.136083    0.162488
            12    0       1.776107      5.436939      0.040400     0.294266   -0.194230   -0.230701
            13    0      -0.003822      3.579971      3.580145     0.142667    0.184941   -0.013304
            14    0       0.023154      5.441518      5.434191    -0.188873   -0.182347   -0.223996
            15    0       1.781014      3.618525      5.419306     0.045144    0.059495    0.042653
            16    0       1.812503      5.445924      3.617936    -0.217184   -0.316650   -0.074636
            17    0       3.634001      0.002460      0.010337    -0.286097   -0.001128   -0.070175
            18    0       3.632582      1.752897      1.793520    -0.143843    0.320820    0.042292
            19    0       5.398283     -0.023343      1.795369     0.165936   -0.125020    0.163110
            20    0       5.468462      1.774145      0.034564    -0.314779    0.220173   -0.246665
            21    0       3.550056     -0.011892      3.615927     0.490341    0.135396    0.004237
            22    0       3.631054      1.830593      5.443447    -0.072906   -0.071400   -0.125632
            23    0       5.402519     -0.016649      5.445387     0.078191    0.057171   -0.319920
            24    0       5.407833      1.759278      3.569379    -0.119652    0.215324    0.197554
            25    0       3.577488      3.627639      0.004971     0.379179   -0.161155   -0.117078
            26    0       3.634652      5.399836      1.810552    -0.174277    0.154395   -0.099395
            27    0       5.437299      3.598467      1.821070    -0.176850   -0.185286   -0.247379
            28    0       5.391499      5.401692     -0.013514     0.230031   -0.092462    0.149859
            29    0       3.567380      3.627172      3.593466     0.330796   -0.216972    0.248216
            30    0       3.610389      5.431935      5.430948    -0.037559   -0.235560   -0.107886
            31    0       5.438695      3.606470      5.399735    -0.184584    0.030537    0.024331
            32    0       5.412248      5.354932      3.558626     0.067037    0.483199    0.503561
 Energy
          0.081710362497
 PlusStress:  xx          yy          zz          yz          xz          xy
        -4.01582    -4.08495    -3.95172     0.17019    -0.00392    -0.10416
END_CFG

BEGIN_CFG
 Size
    32
 Supercell
         7.220000      0.000000      0.000000
         0.000000      7.220000      0.000000
         0.000000      0.000000      7.220000
 AtomData:  id type       cartes_x      cartes_y      cartes_z           fx          fy          fz
             1    0       0.016029     -0.055095      0.038125    -0.136719    0.237326   -0.493902
             2    0       0.049697      1.702272      1.737646    -0.292374    0.596077    0.710166
             3    0       1.812808     -0.016626      1.804577     0.177921    0.100311    0.091502
             4    0       1.760496      1.850138      0.039165     0.381984   -0.474946   -0.608551
             5    0       0.003227      0.058418      3.634860    -0.026448   -0.523331   -0.104926
             6    0      -0.045261      1.823584      5.365560     0.243427   -0.236470    0.483410
             7    0       1.850920     -0.000503      5.406996    -0.347815    0.395783    0.399444
             8    0       1.769972      1.869095      3.601806     0.364493   -0.448901    0.031806
             9    0      -0.022477      3.592397      0.028691     0.141886    0.290480   -0.046355
            10    0       0.019418      5.436023      1.828604    -0.095899   -0.252160    0.065468
            11    0       1.916594      3.589008      1.778449    -0.893298    0.191068    0.240349
            12    0       1.763053      5.446996      0.059501     0.450697   -0.310521   -0.345348
            13    0      -0.005041      3.565842      3.565154     0.189251    0.268257   -0.010986
            14    0       0.033822      5.453896      5.442706    -0.266448   -0.258355   -0.312291
            15    0       1.769236      3.623079      5.421664     0.066055    0.077555    0.059055
            16    0       1.815228      5.459886      3.621546    -0.323309   -0.472722   -0.101450
            17    0       3.644635      0.003692      0.015179    -0.411790   -0.016004   -0.114176
            18    0       3.643200      1.728370      1.787983    -0.228885    0.481568    0.060450
            19    0       5.390706     -0.035610      1.791332     0.260413   -0.185195    0.229667
            20    0       5.493689      1.759785      0.050677    -0.462093    0.295550   -0.372001
            21    0       3.522413     -0.017214      3.618926     0.732782    0.223470   -0.015440
            22    0       3.641225      1.843050      5.457068    -0.102181   -0.109632   -0.179360
            23    0       5.396643     -0.024719      5.459040     0.125838    0.105936   -0.446916
            24    0       5.403671      1.737449      3.550006    -0.160218    0.314027    0.297569
            25    0       3.563049      3.635673      0.006924     0.546980   -0.213674   -0.203561
            26    0       3.646151      5.392985      1.812859    -0.265014    0.227987   -0.150184
            27    0       5.447610      3.591822      1.827936    -0.268937   -0.279929   -0.378562
            28    0       5.380845      5.394602     -0.019549     0.337503   -0.132602    0.215848
            29    0       3.547649      3.634711      3.586363     0.489003   -0.298506    0.386093
            30    0       3.610406      5.439280      5.438408    -0.063803   -0.341682   -0.161924
            31    0       5.449652      3.604836      5.392216    -0.258178    0.062505    0.035943
            32    0       5.411191      5.327220      3.535341     0.095175    0.686730    0.739161
 Energy
          0.378689197118
 PlusStress:  xx          yy          zz          yz          xz          xy
        -2.85893    -3.01830    -2.71458     0.36841    -0.01034    -0.21419
END_CFG

BEGIN_CFG
 Size
    32
 Supercell
         7.220000      0.000000      0.000000
         0.000000      7.220000      0.000000
         0.000000      0.000000      7.220000
 AtomData:  id type       cartes_x      cartes_y      cartes_z           fx          fy          fz
             1    0       0.020623     -0.072007      0.047884    -0.208629    0.297916   -0.629323
             2    0       0.064579      1.671592      1.719298    -0.403525    0.766474    0.972614
             3    0       1.816455     -0.021564      1.804991     0.232277    0.127466    0.114546
             4    0       1.747874      1.862317      0.048634     0.521975   -0.592261   -0.799716
             5    0       0.004075      0.074757      3.642531    -0.002869   -0.672435   -0.142554
             6    0      -0.058856      1.828305      5.351986     0.303474   -0.277049    0.612161
             7    0       1.864174      0.001744      5.406694    -0.458697    0.484497    0.517923
             8    0       1.760479      1.887812      3.599270     0.469765   -0.598742    0.041491
             9    0      -0.029115      3.588260      0.037995     0.183414    0.371241   -0.069295
            10    0       0.025347      5.441503      1.836821    -0.136035   -0.315809    0.094419
            11    0       1.948479      3.583175      1.771031    -1.161094    0.231964    0.310884
            12    0       1.751714      5.455870      0.077288     0.603437   -0.431766   -0.455580
            13    0      -0.005542      3.552738      3.550125     0.217045    0.342478    0.000452
            14    0       0.043476      5.465287      5.450035    -0.331511   -0.323429   -0.385208
            15    0       1.757707      3.627929      5.424246     0.085982    0.085806    0.070473
            16    0       1.816724      5.472053      3.624773    -0.417597   -0.616702   -0.118205
            17    0       3.653703      0.004863      0.019588    -0.516441   -0.039121   -0.162302
            18    0       3.652950      1.705674      1.782677    -0.316057    0.636241    0.075533
            19    0       5.384124     -0.048583      1.788163     0.355204   -0.233815    0.280370
            20    0       5.517156      1.746549      0.065379    -0.600808    0.348884   -0.491198
            21    0       3.497559     -0.021690      3.621866     0.960719    0.312582   -0.041673
            22    0       3.651000      1.855090      5.470010    -0.127311   -0.149746   -0.227688
            23    0       5.391246     -0.032387      5.470995     0.172712    0.158577   -0.550724
            24    0       5.398900      1.716819      3.531762    -0.184692    0.405448    0.396806
            25    0       3.550692      3.642894      0.008109     0.695375   -0.252111   -0.298596
            26    0       3.656640      5.386997      1.814594    -0.353100    0.290081   -0.194439
            27    0       5.456898      3.584109      1.833359    -0.360783   -0.364391   -0.501056
            28    0       5.371474      5.387015     -0.024758     0.433979   -0.162341    0.271701
            29    0       3.529782      3.641113      3.580722     0.636487   -0.358569    0.521685
            30    0       3.610177      5.445326      5.445248    -0.093647   -0.431984   -0.214083
            31    0       5.459622      3.603439      5.384832    -0.316853    0.099984    0.047412
            32    0       5.410494      5.302122      3.514867     0.117805    0.860633    0.953171
 Energy
          0.740268734513
 PlusStress:  xx          yy          zz          yz          xz          xy
        -1.46432    -1.74343    -1.21576     0.61188    -0.01724    -0.34225
END_CFG

BEGIN_CFG
 Size
    32
 Supercell
         7.220000      0.000000      0.000000
         0.000000      7.220000      0.000000
         0.000000      0.000000      7.220000
 AtomData:  id type       cartes_x      cartes_y      cartes_z           fx          fy          fz
             1    0       0.024425     -0.087779      0.055255    -0.281119    0.352561   -0.734241
             2    0       0.077924      1.643817      1.704640    -0.505056    0.912367    1.208894
             3    0       1.820985     -0.026016      1.805850     0.272643    0.148922    0.128975
             4    0       1.737237      1.872249      0.055064     0.646265   -0.679702   -0.959141
             5    0       0.004913      0.088534      3.649656     0.027870   -0.799372   -0.176863
             6    0      -0.071287      1.831974      5.340738     0.354374   -0.300598    0.715518
             7    0       1.875686      0.005841      5.408360    -0.555731    0.543565    0.611664
             8    0       1.752773      1.904251      3.596892     0.561661   -0.739420    0.055708
             9    0      -0.035056      3.585538      0.047034     0.224119    0.433545   -0.094365
            10    0       0.030760      5.445778      1.845392    -0.173209   -0.364979    0.114669
            11    0       1.975955      3.578226      1.764798    -1.392453    0.256541    0.367920
            12    0       1.742663      5.463099      0.093340     0.740787   -0.547920   -0.556173
            13    0      -0.005222      3.540942      3.535105     0.226156    0.404492    0.022074
            14    0       0.051867      5.475443      5.455902    -0.383908   -0.377647   -0.443378
            15    0       1.746506      3.633104      5.427096     0.105014    0.083262    0.075736
            16    0       1.816633      5.481882      3.627553    -0.489459   -0.737077   -0.123226
            17    0       3.660805      0.005886      0.023378    -0.593209   -0.068676   -0.211365
            18    0       3.661501      1.685392      1.777659    -0.398685    0.778114    0.085490
            19    0       5.378899     -0.062448      1.786054     0.442861   -0.262356    0.311783
            20    0       5.538340      1.734642      0.078219    -0.726458    0.381851   -0.596034
            21    0       3.476357     -0.024981      3.624646     1.159177    0.389717   -0.065481
            22    0       3.660283      1.866561      5.482091    -0.148556   -0.191764   -0.271821
            23    0       5.386505     -0.039454      5.480860     0.213373    0.207609   -0.630692
            24    0       5.393425      1.697736      3.515023    -0.191120    0.487287    0.493314
            25    0       3.540980      3.649156      0.008164     0.816622   -0.280079   -0.387959
            26    0       3.665784      5.382107      1.815590    -0.433770    0.333381   -0.225854
            27    0       5.464817      3.575007      1.836874    -0.449902   -0.426617   -0.600678
            28    0       5.363752      5.378816     -0.028927     0.515087   -0.177063    0.314163
            29    0       3.514338      3.646151      3.577056     0.767042   -0.396195    0.642696
            30    0       3.609587      5.449733      5.451269    -0.124904   -0.499953   -0.262386
            31    0       5.468381      3.602423      5.377624    -0.359364    0.137999    0.058949
            32    0       5.410247      5.280295      3.498012     0.133853    0.998204    1.132106
 Energy
          1.116519838696
 PlusStress:  xx          yy          zz          yz          xz          xy
        -0.03319    -0.44369     0.32652     0.86218    -0.01576    -0.47345
END_CFG

BEGIN_CFG
 Size
    32
 Supercell
         7.220000      0.000000      0.000000
         0.000000      7.220000      0.000000
         0.000000      0.000000      7.220000
 AtomData:  id type       cartes_x      cartes_y      cartes_z           fx          fy          fz
             1    0       0.027162     -0.102201      0.059838    -0.342683    0.403127   -0.797596
             2    0       0.089350      1.619495      1.694561    -0.584331    1.027902    1.387368
             3    0       1.826554     -0.029900      1.807212     0.291632    0.163064    0.131733
             4    0       1.729054      1.879609      0.057856     0.737320   -0.734946   -1.067522
             5    0       0.005859      0.099265      3.656109     0.059134   -0.898931   -0.203957
             6    0      -0.082358      1.834503      5.332204     0.397072   -0.309095    0.787651
             7    0       1.885088      0.012012      5.412347    -0.630870    0.569286    0.668454
             8    0       1.747205      1.917883      3.594728     0.636810   -0.863367    0.077192
             9    0      -0.040150      3.584470      0.055717     0.265382    0.471797   -0.120386
            10    0       0.035515      5.448656      1.854393    -0.202639   -0.396964    0.117518
            11    0       1.998157      3.574253      1.759964    -1.570495    0.263656    0.404767
            12    0       1.736416      5.468242      0.107278     0.849509   -0.646617   -0.641594
            13    0      -0.004050      3.530695      3.520181     0.218263    0.450055    0.054331
            14    0       0.058796      5.484157      5.460087    -0.423979   -0.421336   -0.487010
            15    0       1.735706      3.638589      5.430235     0.123408    0.069369    0.073941
            16    0       1.814676      5.488916      3.629869    -0.527363   -0.821572   -0.115915
            17    0       3.665647      0.006649      0.026364    -0.636425   -0.102178   -0.257021
            18    0       3.668543      1.668060      1.772967    -0.469019    0.899548    0.088627
            19    0       5.375361     -0.077309      1.785125     0.514397   -0.261975    0.322022
            20    0       5.556762      1.724191      0.088802    -0.832880    0.395968   -0.678913
            21    0       3.459560     -0.026795      3.627172     1.310723    0.441432   -0.077271
            22    0       3.668993      1.877307      5.493148    -0.166610   -0.235809   -0.312661
            23    0       5.382571     -0.045734      5.488331     0.242709    0.246392   -0.686307
            24    0       5.387219      1.680510      3.500151    -0.178117    0.556915    0.584314
            25    0       3.534371      3.654349      0.006751     0.901650   -0.301323   -0.454534
            26    0       3.673279      5.378476      1.815729    -0.501747    0.351483   -0.238613
            27    0       5.471031      3.564279      1.838100    -0.533195   -0.454170   -0.662692
            28    0       5.357987      5.369950     -0.031894     0.576930   -0.173135    0.340317
            29    0       3.501813      3.649680      3.575822     0.873801   -0.411889    0.735680
            30    0       3.608519      5.452242      5.456290    -0.154706   -0.540296   -0.305018
            31    0       5.475766      3.601931      5.370635    -0.384797    0.171522    0.070895
            32    0       5.410512      5.262255      3.485453     0.141116    1.092087    1.262201
 Energy
          1.453395635235
 PlusStress:  xx          yy          zz          yz          xz          xy
         1.22208     0.69636     1.68635     1.08037     0.00563    -0.59319
END_CFG

BEGIN_CFG
 Size
    32
 Supercell
         7.220000      0.000000      0.000000
         0.000000      7.220000      0.000000
         0.000000      0.000000      7.220000
 AtomData:  id type       cartes_x      cartes_y      cartes_z           fx          fy          fz
             1    0       0.028605     -0.115082      0.061392    -0.382150    0.449853   -0.810551
             2    0       0.098556      1.599049      1.689728    -0.631185    1.108503    1.480453
             3    0       1.833234     -0.033165      1.809093     0.283462    0.168598    0.120843
             4    0       1.723667      1.884195      0.056600     0.780854   -0.758116   -1.108861
             5    0       0.007032      0.106571      3.661788     0.085379   -0.966284   -0.220027
             6    0      -0.091907      1.835860      5.326653     0.432179   -0.304821    0.823961
             7    0       1.892096      0.020356      5.418869    -0.677671    0.559400    0.677985
             8    0       1.744060      1.928243      3.592860     0.691373   -0.962915    0.107635
             9    0      -0.044245      3.585205      0.063946     0.307968    0.481932   -0.145932
            10    0       0.039501      5.450013      1.863836    -0.220313   -0.410172    0.095485
            11    0       2.014422      3.571280      1.756668    -1.680551    0.254630    0.416256
            12    0       1.733378      5.470925      0.118775     0.916850   -0.715077   -0.706801
            13    0      -0.002059      3.522174      3.505478     0.196370    0.475290    0.096448
            14    0       0.064111      5.491266      5.462430    -0.452386   -0.455035   -0.515953
            15    0       1.725380      3.644328      5.433656     0.141563    0.044031    0.064564
            16    0       1.810705      5.492837      3.631747    -0.521788   -0.860481   -0.097184
            17    0       3.668064      0.007028      0.028370    -0.642449   -0.136588   -0.294332
            18    0       3.673810      1.654132      1.768613    -0.520020    0.993339    0.083705
            19    0       5.373782     -0.093160      1.785414     0.561879   -0.226487    0.311184
            20    0       5.572021      1.715252      0.096815    -0.913372    0.393164   -0.733671
            21    0       3.447743     -0.026933      3.629396     1.400391    0.456548   -0.069072
            22    0       3.677061      1.887164      5.503029    -0.181638   -0.281811   -0.351401
            23    0       5.379556     -0.051082      5.493199     0.256719    0.270001   -0.717507
            24    0       5.380329      1.665409      3.487489    -0.145821    0.611940    0.666615
            25    0       3.531189      3.658393      0.003615     0.942017   -0.319176   -0.481849
            26    0       3.678866      5.376170      1.814965    -0.552397    0.340658   -0.228845
            27    0       5.475228      3.551822      1.836802    -0.606788   -0.437734   -0.675588
            28    0       5.354410      5.360430     -0.033559     0.616456   -0.148299    0.348298
            29    0       3.492611      3.651638      3.577371     0.949502   -0.408396    0.788203
            30    0       3.606860      5.452701      5.460149    -0.179795   -0.549669   -0.340223
            31    0       5.481680      3.602093      5.363909    -0.392653    0.195773    0.083768
            32    0       5.411322      5.248353      3.477679     0.138013    1.137401    1.332394
 Energy
          1.703412317610
 PlusStress:  xx          yy          zz          yz          xz          xy
         2.12524     1.52669     2.67284     1.23347     0.05326    -0.68971
END_CFG

BEGIN_CFG
 Size
    32
 Supercell
         7.220000      0.000000      0.000000
         0.000000      7.220000      0.000000
         0.000000      0.000000      7.220000
 AtomData:  id type       cartes_x      cartes_y      cartes_z           fx          fy          fz
             1    0       0.028606     -0.126245      0.059868    -0.391033    0.491363   -0.769590
             2    0       0.105366      1.582773      1.690481    -0.641668    1.152048    1.471520
             3    0       1.840996     -0.035789      1.811456     0.245263    0.164896    0.096333