BEGIN_CFG
 Size
    5
 AtomData:  id type       cartes_x      cartes_y      cartes_z           fx          fy          fz
             1    0      -0.000000     -0.000009     -0.000010     0.000000    0.000013   -0.000092
             2    1      -0.000000      0.367524     -1.017850     0.000000    0.001393   -0.003982
             3    1      -0.000000     -1.082151     -0.007248     0.000000   -0.004084    0.000005
             4    1       0.883595      0.357298      0.512510     0.003232    0.001339    0.002034
             5    1      -0.883595      0.357298      0.512510    -0.003232    0.001339    0.002034
 Energy
       -113.613618423703
 PlusStress:  xx          yy          zz          yz          xz          xy
         0.00571     0.00589     0.00614    -0.00002     0.00000     0.00000
END_CFG

BEGIN_CFG
 Size
    5
 AtomData:  id type       cartes_x      cartes_y      cartes_z           fx          fy          fz
             1    0      -1.724530      0.409118      0.152253    -3.883110   -5.734722   -2.012173
             2    1      -1.244131      1.213760      0.477180     1.389413    2.747933    1.365490
             3    1      -1.273355     -0.051529     -0.763580     0.603874    0.020150    1.373101
             4    1      -2.093939     -0.403875      0.921762     1.890631    1.481051   -1.030033
             5    1      -2.720376      0.501494     -0.307116    -0.000807    1.485589    0.303615
 Energy
       -112.923763751975
 PlusStress:  xx          yy          zz          yz          xz          xy
         0.24231     1.13497    -1.74594     1.33167     1.35364    -0.69734
END_CFG

BEGIN_CFG
 Size
    5
 AtomData:  id type       cartes_x      cartes_y      cartes_z           fx          fy          fz
             1    0      -1.326535      1.904060     -0.387195     0.515991   -4.368884    0.026068
             2    1      -1.073801      1.547131      0.689941    -0.559842    1.090768   -1.854812
             3    1      -0.825052      2.787017     -0.703922     0.104120    0.179052    0.014713
             4    1      -0.989166      0.929702     -1.054230    -0.281984    2.493957    1.358148
             5    1      -2.396825      1.871130     -0.582113     0.221715    0.605107    0.455883
 Energy
       -113.159094518849
 PlusStress:  xx          yy          zz          yz          xz          xy
        -0.42171    -2.68116    -2.99734    -0.66331    -0.49113     0.55921
END_CFG

BEGIN_CFG
 Size
    5
 AtomData:  id type       cartes_x      cartes_y      cartes_z           fx          fy          fz
             1    0      -1.450672      1.742005     -0.497139     0.184169    4.111659    0.662946
             2    1      -1.001029      0.848714     -0.424456     1.591475   -2.604332   -0.224603
             3    1      -0.811885      2.631361     -0.414509     1.079661   -0.597098    0.561837
             4    1      -1.857676      2.051680     -1.396969    -1.523756   -0.729195   -1.788539
             5    1      -2.086922      1.897578      0.322775    -1.331548   -0.181034    0.788359
 Energy
       -113.143590415645
 PlusStress:  xx          yy          zz          yz          xz          xy
         2.87264     1.54142     2.28587     0.26909     0.48425    -1.14047
END_CFG

BEGIN_CFG
 Size
    5
 AtomData:  id type       cartes_x      cartes_y      cartes_z           fx          fy          fz
             1    0      -1.947741      1.776656     -0.447599    -1.291736    0.718831   -0.376364
             2    1      -1.932641      1.792992      0.592805     0.410507    0.435098    1.902072
             3    1      -0.982329      2.016296     -0.832271     0.323908   -0.667092   -0.418491
             4    1      -2.454493      0.846698     -0.620727     0.529184   -0.456344   -1.012829
             5    1      -2.627008      2.569519     -0.760544     0.028137   -0.030493   -0.094387
 Energy
       -113.407150230750
 PlusStress:  xx          yy          zz          yz          xz          xy
         0.03163     0.24745     2.34479     0.79784     0.20207    -0.38548
END_CFG

BEGIN_CFG
 Size
    5
 AtomData:  id type       cartes_x      cartes_y      cartes_z           fx          fy          fz
             1    0      -0.796370      1.513875     -1.591092     3.635846    0.765928    1.059339
             2    1      -0.454307      0.741215     -2.299356    -0.419767    0.257309    0.708559
             3    1      -0.884079      1.164146     -0.519120    -0.501912    0.316365   -1.716236
             4    1       0.083746      2.290544     -1.540301    -1.061779   -1.479072   -0.001171
             5    1      -1.516507      2.129436     -2.028573    -1.652388    0.139471   -0.050491
 Energy
       -113.259522399470
 PlusStress:  xx          yy          zz          yz          xz          xy
         0.15589    -1.37235    -2.31958     0.02075     0.42823    -1.34193
END_CFG

BEGIN_CFG
 Size
    5
 AtomData:  id type       cartes_x      cartes_y      cartes_z           fx          fy          fz
             1    0      -1.266253      1.756576     -1.360209     0.389550   -2.750276   -3.368637
             2    1      -1.826209      0.766551     -1.316197     0.864194    1.395412    1.066859
             3    1      -1.531572      2.005017     -2.404969     0.010215    0.623328    0.405485
             4    1      -1.479822      2.540301     -0.727953    -0.700888    0.888913    1.324204
             5    1      -0.179443      1.588380     -1.448554    -0.563071   -0.157377    0.572089
 Energy
       -113.306560855847
 PlusStress:  xx          yy          zz          yz          xz          xy
        -0.94888    -0.50350     0.41001    -0.01389    -0.36603    -1.30763
END_CFG

BEGIN_CFG
 Size
    5
 AtomData:  id type       cartes_x      cartes_y      cartes_z           fx          fy          fz
             1    0      -1.071385      0.412672     -0.922035    -0.278954    2.273149   -1.985273
             2    1      -1.271316     -0.602917     -0.769317    -0.311274   -1.026758    0.405340
             3    1      -0.038352      0.558173     -1.207215     0.286223   -0.194813    0.209665
             4    1      -1.630288      0.765389     -1.883634     0.539078   -0.510233    1.976545
             5    1      -1.266203      1.064586     -0.056371    -0.235073   -0.541346   -0.606277
 Energy
       -113.437092696289
 PlusStress:  xx          yy          zz          yz          xz          xy
         0.10241     0.48154    -2.42337    -0.07923    -0.85103     0.39467
END_CFG

BEGIN_CFG
 Size
    5
 AtomData:  id type       cartes_x      cartes_y      cartes_z           fx          fy          fz
             1    0      -1.431294      1.897002     -1.655544    -4.843982    0.379105   -0.487348
             2    1      -1.395602      1.802682     -0.594868    -0.234134   -0.081234    0.335301
             3    1      -1.569983      2.922255     -1.988204    -0.148750   -0.006961    0.341798
             4    1      -0.634810      1.539701     -2.109088     4.035164   -1.557034   -1.671118
             5    1      -2.288444      1.263325     -2.165089     1.191703    1.266125    1.481366
 Energy
       -113.218449631320
 PlusStress:  xx          yy          zz          yz          xz          xy
         2.20475    -0.24546     0.24505    -0.02281    -2.63621    -2.32735
END_CFG

BEGIN_CFG
 Size
    5
 AtomData:  id type       cartes_x      cartes_y      cartes_z           fx          fy          fz
             1    0      -1.910236      1.609059     -1.075856    -1.015054   -3.543306    0.221280
             2    1      -1.395561      1.664037     -0.144389    -0.400115    0.953066    0.732970
             3    1      -2.511908      2.373728     -1.489218    -0.277108    0.736269    0.436771
             4    1      -1.116622      1.386572     -1.743413     0.429273   -0.281691   -0.996922
             5    1      -2.570337      0.614305     -0.974404     1.263004    2.135661   -0.394099
 Energy
       -113.266038555663
 PlusStress:  xx          yy          zz          yz          xz          xy
        -0.53224    -1.44639     1.12771     0.98812    -0.41658    -1.58578
END_CFG

BEGIN_CFG
 Size
    5
 AtomData:  id type       cartes_x      cartes_y      cartes_z           fx          fy          fz
             1    0      -2.080011      1.168339     -0.674974    -1.736795   -2.323396   -1.874544
             2    1      -3.210200      1.288357     -0.885302     1.803930    0.066535   -0.282571
             3    1      -1.664996      2.132301     -0.487477     0.383242   -0.003047    0.091318
             4    1      -2.145152      0.481262      0.179267     0.799817    0.515181   -0.173360
             5    1      -1.562967      0.563888     -1.595323    -1.250195    1.744728    2.239158
 Energy
       -113.197152225137
 PlusStress:  xx          yy          zz          yz          xz          xy
        -2.57824    -1.40352    -2.13234    -1.18024     1.52629     0.79208
END_CFG

BEGIN_CFG
 Size
    5
 AtomData:  id type       cartes_x      cartes_y      cartes_z           fx          fy          fz
             1    0      -2.236018      2.500013     -0.505094     1.363333   -0.621557    2.344585
             2    1      -2.039364      2.197251      0.592742     0.567861   -0.383421   -1.708896
             3    1      -2.275168      1.580896     -1.174878    -0.408517    1.953879    1.011076
             4    1      -3.011762      3.156239     -0.215857    -2.070742   -0.078103   -1.162651
             5    1      -1.494723      3.263611     -0.743567     0.548065   -0.870798   -0.484115
 Energy
       -112.985933135899
 PlusStress:  xx          yy          zz          yz          xz          xy
         2.14031    -2.39595    -2.77412    -1.54454     0.16740    -0.73683
END_CFG

BEGIN_CFG
 Size
    5
 AtomData:  id type       cartes_x      cartes_y      cartes_z           fx          fy          fz
             1    0      -2.093234      3.371679      0.692720    -1.603792    1.318746    0.279518
             2    1      -1.360026      4.080332      0.393866     0.118788    0.967886   -0.654064
             3    1      -2.241933      3.583545      1.732804     0.598491   -0.803768    0.901060
             4    1      -3.147600      3.629399      0.371755     1.550048   -0.699522   -0.753108
             5    1      -1.659096      2.443023      0.407274    -0.663536   -0.783342    0.226594
 Energy
       -113.293406690963
 PlusStress:  xx          yy          zz          yz          xz          xy
        -1.92428     1.06278     1.30969    -0.67712     0.27887     1.22665
END_CFG

BEGIN_CFG
 Size
    5
 AtomData:  id type       cartes_x      cartes_y      cartes_z           fx          fy          fz
             1    0      -2.365806      3.095026      1.012906     0.227607   -3.405399    0.521179
             2    1      -2.974188      2.831578      1.865386    -0.264049   -0.893663   -0.159697
             3    1      -2.885985      3.752707      0.479889    -2.091485    2.710793   -2.268421
             4    1      -1.565135      3.555235      1.440334     2.531549    1.139258    0.763623
             5    1      -2.047490      2.278383      0.317373    -0.403622    0.449011    1.143316
 Energy
       -113.257157371083
 PlusStress:  xx          yy          zz          yz          xz          xy
         3.14705     2.17589     0.60415    -2.03208     2.25249     0.18869
END_CFG

BEGIN_CFG
 Size
    5
 AtomData:  id type       cartes_x      cartes_y      cartes_z           fx          fy          fz
             1    0      -2.486775      3.083284      0.982149     0.951008    1.121089   -0.259684
             2    1      -2.946352      3.638864      1.818242     0.642479   -0.616631   -0.638847
             3    1      -1.948701      3.705980      0.270991    -0.389686    0.847414    0.181167
             4    1      -1.720018      2.379078      1.174556     0.499461   -0.683332    1.380608
             5    1      -3.164376      2.551455      0.401683    -1.703262   -0.668539   -0.663243
 Energy
       -113.365029503698
 PlusStress:  xx          yy          zz          yz          xz          xy
         1.03215     1.02185    -0.01235    -0.86162     1.89909     0.66841
END_CFG

BEGIN_CFG
 Size
    5
 AtomData:  id type       cartes_x      cartes_y      cartes_z           fx          fy          fz
             1    0      -1.354952      1.828860      1.911503     2.571539    2.033533   -0.645868
             2    1      -2.303632      1.963444      1.575986    -2.935719   -0.249983   -0.672511
             3    1      -1.109321      2.855582      2.303688     0.170547   -1.386801    0.385935
             4    1      -1.214566      0.983505      2.539975     0.131632   -0.016692    0.470520
             5    1      -0.751430      1.765455      0.992710     0.062001   -0.380057    0.461924
 Energy
       -113.354021106912
 PlusStress:  xx          yy          zz          yz          xz          xy
         2.88285    -1.41929     0.24829    -0.12131     1.07763    -0.33520
END_CFG

BEGIN_CFG
 Size
    5
 AtomData:  id type       cartes_x      cartes_y      cartes_z           fx          fy          fz
             1    0      -1.985953      2.205059      0.751147     2.200112   -1.482886   -2.564913
             2    1      -2.383691      1.453137      0.056395    -1.193691    0.516894    0.579786
             3    1      -1.459527      2.859463      0.028585    -0.307461    0.187775    0.879083
             4    1      -2.553773      2.702753      1.465588    -1.078976    0.422818    0.464224
             5    1      -1.229056      1.580924      1.208366     0.380017    0.355399    0.641820
 Energy
       -113.330147651269
 PlusStress:  xx          yy          zz          yz          xz          xy
         1.21322    -0.27717    -0.41289    -0.03022     0.45437    -0.07782
END_CFG

BEGIN_CFG
 Size
    5
 AtomData:  id type       cartes_x      cartes_y      cartes_z           fx          fy          fz
             1    0      -0.895493      2.570221      0.517062     0.997203   -1.252482   -3.924245
             2    1      -0.544419      1.979073      1.279826     0.375587   -1.437485    1.683050
             3    1      -1.321594      3.430499      0.878929    -1.249993    1.594281    0.497127
             4    1       0.021053      2.844800     -0.063895    -0.725292    0.004142    0.338347
             5    1      -1.522212      1.959819     -0.225433     0.602496    1.091544    1.405722
 Energy
       -113.368788669677
 PlusStress:  xx          yy          zz          yz          xz          xy
        -0.37788     1.55615     0.22336    -1.33242    -0.19183    -1.86428
END_CFG

BEGIN_CFG
 Size
    5
 AtomData:  id type       cartes_x      cartes_y      cartes_z           fx          fy          fz
             1    0      -0.925684      2.489003      0.863692     0.420683   -2.876158    2.222662
             2    1       0.075648      2.229869      1.383049    -1.864146   -0.228707   -0.106494
             3    1      -0.535529      3.187286      0.232213    -0.218966    2.440222   -1.545434
             4    1      -1.220036      1.610091      0.222613     0.123128    0.856390    1.011430
             5    1      -1.737720      2.751936      1.634355     1.539301   -0.191747   -1.582164
 Energy
       -113.163456815148
 PlusStress:  xx          yy          zz          yz          xz          xy
        -3.23827     0.96012    -0.94712    -2.35652     0.27746     0.62668
END_CFG

BEGIN_CFG
 Size
    5
 AtomData:  id type       cartes_x      cartes_y      cartes_z           fx          fy          fz
             1    0      -1.270365      2.199435      1.900101    -2.009682    0.312472   -3.165722
             2    1      -0.905749      1.640827      2.669225     0.898720   -0.555776    2.491617
             3    1      -1.733540      1.377171      1.272930     0.074529    1.102821    0.296769
             4    1      -2.072600      2.971417      2.116493     1.373313   -1.101342   -0.045094
             5    1      -0.456748      2.585373      1.278986    -0.336880    0.241824    0.422430
 Energy
       -113.337466716032
 PlusStress:  xx          yy          zz          yz          xz          xy
        -1.08264    -1.35324     1.45810    -1.50764     1.15090     0.36684
END_CFG

BEGIN_CFG
 Size
    5
 AtomData:  id type       cartes_x      cartes_y      cartes_z           fx          fy          fz
             1    0      -1.159231      2.099953      2.211603    -0.601779   -0.854527   -0.566128
             2    1      -0.230558      2.394311      2.619509     1.029878   -0.206343    0.151448
             3    1      -1.134488      1.968974      1.137985     0.315784    0.381379   -0.153352
             4    1      -1.492045      1.121263      2.566814     0.074612    0.513913    0.443630
             5    1      -1.822116      2.896239      2.456961    -0.818495    0.165578    0.124402
 Energy
       -113.531290874828
 PlusStress:  xx          yy          zz          yz          xz          xy
         1.48197    -0.48181     0.41452    -0.27045    -0.09326    -0.46299
END_CFG

