BEGIN_CFG
 Size
    5
 AtomData:  id type       cartes_x      cartes_y      cartes_z           fx          fy          fz
             1    0      -0.000000     -0.000009     -0.000010     0.000000    0.000012   -0.000086
             2    1      -0.000000      0.367524     -1.017850     0.000000    0.006264   -0.017470
             3    1      -0.000000     -1.082151     -0.007248     0.000000   -0.018423   -0.000091
             4    1       0.883595      0.357298      0.512510     0.014941    0.006073    0.008824
             5    1      -0.883595      0.357298      0.512510    -0.014941    0.006073    0.008824
 Energy
       -113.611034779218
 PlusStress:  xx          yy          zz          yz          xz          xy
         0.02640     0.02658     0.02683    -0.00002    -0.00000     0.00000
END_CFG

BEGIN_CFG
 Size
    5
 AtomData:  id type       cartes_x      cartes_y      cartes_z           fx          fy          fz
             1    0      -1.724530      0.409118      0.152253    -4.025421   -5.679730   -2.049325
             2    1      -1.244131      1.213760      0.477180     1.368905    2.653020    1.355132
             3    1      -1.273355     -0.051529     -0.763580     0.595336    0.066758    1.333118
             4    1      -2.093939     -0.403875      0.921762     1.881418    1.528158   -0.996090
             5    1      -2.720376      0.501494     -0.307116     0.179762    1.431795    0.357165
 Energy
       -112.930615663977
 PlusStress:  xx          yy          zz          yz          xz          xy
         0.05219     0.99386    -1.71117     1.31911     1.26476    -0.68574
END_CFG

BEGIN_CFG
 Size
    5
 AtomData:  id type       cartes_x      cartes_y      cartes_z           fx          fy          fz
             1    0      -1.326535      1.904060     -0.387195     0.524119   -4.454291    0.000708
             2    1      -1.073801      1.547131      0.689941    -0.578473    1.101647   -1.818259
             3    1      -0.825052      2.787017     -0.703922     0.125047    0.246350    0.000523
             4    1      -0.989166      0.929702     -1.054230    -0.253671    2.472686    1.331901
             5    1      -2.396825      1.871130     -0.582113     0.182979    0.633609    0.485127
 Energy
       -113.158772112489
 PlusStress:  xx          yy          zz          yz          xz          xy
        -0.36491    -2.60584    -2.94166    -0.66427    -0.52916     0.55803
END_CFG

BEGIN_CFG
 Size
    5
 AtomData:  id type       cartes_x      cartes_y      cartes_z           fx          fy          fz
             1    0      -1.450672      1.742005     -0.497139     0.212498    4.127332    0.575407
             2    1      -1.001029      0.848714     -0.424456     1.565639   -2.631108   -0.205070
             3    1      -0.811885      2.631361     -0.414509     1.051313   -0.577104    0.574542
             4    1      -1.857676      2.051680     -1.396969    -1.497110   -0.730905   -1.834595
             5    1      -2.086922      1.897578      0.322775    -1.332340   -0.188215    0.889718
 Energy
       -113.142495623211
 PlusStress:  xx          yy          zz          yz          xz          xy
         2.83257     1.58147     2.41289     0.26445     0.45541    -1.13447
END_CFG

BEGIN_CFG
 Size
    5
 AtomData:  id type       cartes_x      cartes_y      cartes_z           fx          fy          fz
             1    0      -1.947741      1.776656     -0.447599    -1.236805    0.641360   -0.422533
             2    1      -1.932641      1.792992      0.592805     0.445772    0.425993    1.865875
             3    1      -0.982329      2.016296     -0.832271     0.313043   -0.608822   -0.353451
             4    1      -2.454493      0.846698     -0.620727     0.469571   -0.451201   -0.972919
             5    1      -2.627008      2.569519     -0.760544     0.008420   -0.007330   -0.116972
 Energy
       -113.411768104391
 PlusStress:  xx          yy          zz          yz          xz          xy
         0.06527     0.27485     2.28227     0.75781     0.25943    -0.34771
END_CFG

BEGIN_CFG
 Size
    5
 AtomData:  id type       cartes_x      cartes_y      cartes_z           fx          fy          fz
             1    0      -0.796370      1.513875     -1.591092     3.663898    0.833767    1.102230
             2    1      -0.454307      0.741215     -2.299356    -0.431176    0.238455    0.705263
             3    1      -0.884079      1.164146     -0.519120    -0.480786    0.317779   -1.756100
             4    1       0.083746      2.290544     -1.540301    -1.082681   -1.513387    0.020618
             5    1      -1.516507      2.129436     -2.028573    -1.669255    0.123385   -0.072012
 Energy
       -113.258169356236
 PlusStress:  xx          yy          zz          yz          xz          xy
         0.14389    -1.39483    -2.34945     0.04092     0.46527    -1.36712
END_CFG

BEGIN_CFG
 Size
    5
 AtomData:  id type       cartes_x      cartes_y      cartes_z           fx          fy          fz
             1    0      -1.266253      1.756576     -1.360209     0.319057   -2.751230   -3.380988
             2    1      -1.826209      0.766551     -1.316197     0.882733    1.393590    1.063654
             3    1      -1.531572      2.005017     -2.404969     0.040381    0.633078    0.483645
             4    1      -1.479822      2.540301     -0.727953    -0.695584    0.889166    1.279464
             5    1      -0.179443      1.588380     -1.448554    -0.546587   -0.164604    0.554225
 Energy
       -113.307958929213
 PlusStress:  xx          yy          zz          yz          xz          xy
        -0.95049    -0.49786     0.30151    -0.02336    -0.39484    -1.31711
END_CFG

BEGIN_CFG
 Size
    5
 AtomData:  id type       cartes_x      cartes_y      cartes_z           fx          fy          fz
             1    0      -1.071385      0.412672     -0.922035    -0.273362    2.253251   -1.969517
             2    1      -1.271316     -0.602917     -0.769317    -0.306665   -1.030437    0.397100
             3    1      -0.038352      0.558173     -1.207215     0.269864   -0.189727    0.224833
             4    1      -1.630288      0.765389     -1.883634     0.528146   -0.504289    1.951992
             5    1      -1.266203      1.064586     -0.056371    -0.217983   -0.528798   -0.604407
 Energy
       -113.437477630078
 PlusStress:  xx          yy          zz          yz          xz          xy
         0.08738     0.49629    -2.40372    -0.07610    -0.82036     0.39489
END_CFG

BEGIN_CFG
 Size
    5
 AtomData:  id type       cartes_x      cartes_y      cartes_z           fx          fy          fz
             1    0      -1.431294      1.897002     -1.655544    -4.868035    0.385302   -0.446053
             2    1      -1.395602      1.802682     -0.594868    -0.213638   -0.090070    0.324295
             3    1      -1.569983      2.922255     -1.988204    -0.130493    0.010619    0.324323
             4    1      -0.634810      1.539701     -2.109088     4.020591   -1.549766   -1.665477
             5    1      -2.288444      1.263325     -2.165089     1.191575    1.243915    1.462912
 Energy
       -113.220354065348
 PlusStress:  xx          yy          zz          yz          xz          xy
         2.19145    -0.21512     0.24603    -0.03001    -2.61387    -2.30527
END_CFG

BEGIN_CFG
 Size
    5
 AtomData:  id type       cartes_x      cartes_y      cartes_z           fx          fy          fz
             1    0      -1.910236      1.609059     -1.075856    -1.027830   -3.447178    0.278592
             2    1      -1.395561      1.664037     -0.144389    -0.378537    0.889734    0.698612
             3    1      -2.511908      2.373728     -1.489218    -0.250447    0.665195    0.385282
             4    1      -1.116622      1.386572     -1.743413     0.396330   -0.249697   -0.971914
             5    1      -2.570337      0.614305     -0.974404     1.260483    2.141946   -0.390572
 Energy
       -113.274421144287
 PlusStress:  xx          yy          zz          yz          xz          xy
        -0.56165    -1.51759     1.10066     0.93778    -0.38576    -1.55437
END_CFG

BEGIN_CFG
 Size
    5
 AtomData:  id type       cartes_x      cartes_y      cartes_z           fx          fy          fz
             1    0      -2.080011      1.168339     -0.674974    -1.770730   -2.348170   -1.864592
             2    1      -3.210200      1.288357     -0.885302     1.744530    0.088990   -0.312967
             3    1      -1.664996      2.132301     -0.487477     0.422936    0.083174    0.103090
             4    1      -2.145152      0.481262      0.179267     0.836030    0.465893   -0.158085
             5    1      -1.562967      0.563888     -1.595323    -1.232766    1.710114    2.232554
 Energy
       -113.198689048512
 PlusStress:  xx          yy          zz          yz          xz          xy
        -2.48798    -1.26293    -2.10462    -1.17904     1.56112     0.78780
END_CFG

BEGIN_CFG
 Size
    5
 AtomData:  id type       cartes_x      cartes_y      cartes_z           fx          fy          fz
             1    0      -2.236018      2.500013     -0.505094     1.280269   -0.654805    2.394632
             2    1      -2.039364      2.197251      0.592742     0.523460   -0.488739   -1.717712
             3    1      -2.275168      1.580896     -1.174878    -0.334523    2.012176    1.086004
             4    1      -3.011762      3.156239     -0.215857    -2.025566   -0.041785   -1.164996
             5    1      -1.494723      3.263611     -0.743567     0.556360   -0.826847   -0.597927
 Energy
       -112.983022628774
 PlusStress:  xx          yy          zz          yz          xz          xy
         2.09978    -2.36025    -2.80752    -1.69918     0.08019    -0.75541
END_CFG

BEGIN_CFG
 Size
    5
 AtomData:  id type       cartes_x      cartes_y      cartes_z           fx          fy          fz
             1    0      -2.093234      3.371679      0.692720    -1.652363    1.267373    0.309840
             2    1      -1.360026      4.080332      0.393866     0.094586    0.968543   -0.575073
             3    1      -2.241933      3.583545      1.732804     0.677522   -0.764203    0.819387
             4    1      -3.147600      3.629399      0.371755     1.576299   -0.724451   -0.774757
             5    1      -1.659096      2.443023      0.407274    -0.696044   -0.747261    0.220603
 Energy
       -113.292038047037
 PlusStress:  xx          yy          zz          yz          xz          xy
        -1.99557     1.03170     1.20979    -0.63846     0.36916     1.26320
END_CFG

BEGIN_CFG
 Size
    5
 AtomData:  id type       cartes_x      cartes_y      cartes_z           fx          fy          fz
             1    0      -2.365806      3.095026      1.012906     0.230820   -3.417847    0.543837
             2    1      -2.974188      2.831578      1.865386    -0.309224   -0.878105   -0.105769
             3    1      -2.885985      3.752707      0.479889    -2.112041    2.695031   -2.303035
             4    1      -1.565135      3.555235      1.440334     2.570283    1.126871    0.764915
             5    1      -2.047490      2.278383      0.317373    -0.379838    0.474050    1.100051
 Energy
       -113.254799475224
 PlusStress:  xx          yy          zz          yz          xz          xy
         3.22381     2.13527     0.69922    -2.03313     2.22495     0.18547
END_CFG

BEGIN_CFG
 Size
    5
 AtomData:  id type       cartes_x      cartes_y      cartes_z           fx          fy          fz
             1    0      -2.486775      3.083284      0.982149     0.978218    1.113770   -0.230400
             2    1      -2.946352      3.638864      1.818242     0.649956   -0.634170   -0.705351
             3    1      -1.948701      3.705980      0.270991    -0.382177    0.912963    0.181373
             4    1      -1.720018      2.379078      1.174556     0.510973   -0.712146    1.400484
             5    1      -3.164376      2.551455      0.401683    -1.756970   -0.680417   -0.646106
 Energy
       -113.357806252705
 PlusStress:  xx          yy          zz          yz          xz          xy
         1.07797     1.07953    -0.07422    -0.92155     1.93339     0.69770
END_CFG

BEGIN_CFG
 Size
    5
 AtomData:  id type       cartes_x      cartes_y      cartes_z           fx          fy          fz
             1    0      -1.354952      1.828860      1.911503     2.575330    2.012738   -0.597828
             2    1      -2.303632      1.963444      1.575986    -2.922576   -0.262823   -0.658031
             3    1      -1.109321      2.855582      2.303688     0.161179   -1.338624    0.398443
             4    1      -1.214566      0.983505      2.539975     0.109059   -0.005988    0.427580
             5    1      -0.751430      1.765455      0.992710     0.077008   -0.405303    0.429835
 Energy
       -113.354310109475
 PlusStress:  xx          yy          zz          yz          xz          xy
         2.87397    -1.37901     0.25084    -0.06818     1.04157    -0.32492
END_CFG

BEGIN_CFG
 Size
    5
 AtomData:  id type       cartes_x      cartes_y      cartes_z           fx          fy          fz
             1    0      -1.985953      2.205059      0.751147     2.109754   -1.519185   -2.568076
             2    1      -2.383691      1.453137      0.056395    -1.154863    0.511530    0.573087
             3    1      -1.459527      2.859463      0.028585    -0.316898    0.232296    0.868126
             4    1      -2.553773      2.702753      1.465588    -0.980395    0.412430    0.448808
             5    1      -1.229056      1.580924      1.208366     0.342402    0.362929    0.678054
 Energy
       -113.333429427592
 PlusStress:  xx          yy          zz          yz          xz          xy
         1.10836    -0.25387    -0.39476    -0.06264     0.48744    -0.04065
END_CFG

BEGIN_CFG
 Size
    5
 AtomData:  id type       cartes_x      cartes_y      cartes_z           fx          fy          fz
             1    0      -0.895493      2.570221      0.517062     0.973670   -1.229125   -3.906742
             2    1      -0.544419      1.979073      1.279826     0.373887   -1.457745    1.671940
             3    1      -1.321594      3.430499      0.878929    -1.253605    1.600329    0.493617
             4    1       0.021053      2.844800     -0.063895    -0.714518    0.000114    0.324297
             5    1      -1.522212      1.959819     -0.225433     0.620566    1.086427    1.416888
 Energy
       -113.367784607365
 PlusStress:  xx          yy          zz          yz          xz          xy
        -0.37838     1.57535     0.21348    -1.33954    -0.21411    -1.87446
END_CFG

BEGIN_CFG
 Size
    5
 AtomData:  id type       cartes_x      cartes_y      cartes_z           fx          fy          fz
             1    0      -0.925684      2.489003      0.863692     0.422277   -2.845883    2.281296
             2    1       0.075648      2.229869      1.383049    -1.854923   -0.227348   -0.051544
             3    1      -0.535529      3.187286      0.232213    -0.255137    2.427599   -1.575570
             4    1      -1.220036      1.610091      0.222613     0.098901    0.846360    0.954146
             5    1      -1.737720      2.751936      1.634355     1.588883   -0.200728   -1.608327
 Energy
       -113.160495509466
 PlusStress:  xx          yy          zz          yz          xz          xy
        -3.27628     0.95741    -0.88299    -2.34833     0.35884     0.63336
END_CFG

BEGIN_CFG
 Size
    5
 AtomData:  id type       cartes_x      cartes_y      cartes_z           fx          fy          fz
             1    0      -1.270365      2.199435      1.900101    -2.019922    0.300668   -3.142870
             2    1      -0.905749      1.640827      2.669225     0.902178   -0.546816    2.504097
             3    1      -1.733540      1.377171      1.272930     0.046639    1.122703    0.294803
             4    1      -2.072600      2.971417      2.116493     1.397504   -1.140656   -0.070196
             5    1      -0.456748      2.585373      1.278986    -0.326398    0.264101    0.414167
 Energy
       -113.334837952043
 PlusStress:  xx          yy          zz          yz          xz          xy
        -1.07934    -1.39634     1.46863    -1.53556     1.16978     0.41057
END_CFG

BEGIN_CFG
 Size
    5
 AtomData:  id type       cartes_x      cartes_y      cartes_z           fx          fy          fz
             1    0      -1.159231      2.099953      2.211603    -0.590255   -0.857186   -0.557107
             2    1      -0.230558      2.394311      2.619509     1.027412   -0.218082    0.156755
             3    1      -1.134488      1.968974      1.137985     0.303174    0.396626   -0.157845
             4    1      -1.492045      1.121263      2.566814     0.083138    0.509614    0.452733
             5    1      -1.822116      2.896239      2.456961    -0.823469    0.169028    0.105464
 Energy
       -113.528451772690
 PlusStress:  xx          yy          zz          yz          xz          xy
         1.47983    -0.48030     0.42010    -0.29229    -0.07892    -0.47437
END_CFG

