BEGIN_CFG
 Size
     5
 AtomData:  id type       cartes_x      cartes_y      cartes_z           fx          fy          fz
             1    0      -0.000000     -0.000009     -0.000010     0.000000    0.000015   -0.000095
             2    1      -0.000000      0.367524     -1.017850    -0.000000   -0.000013   -0.000084
             3    1      -0.000000     -1.082151     -0.007248    -0.000000    0.000058    0.000035
             4    1       0.883595      0.357298      0.512510    -0.000156   -0.000030    0.000072
             5    1      -0.883595      0.357298      0.512510     0.000156   -0.000030    0.000072
 Energy
       -113.613482929307
END_CFG

BEGIN_CFG
 Size
     5
 AtomData:  id type       cartes_x      cartes_y      cartes_z           fx          fy          fz
             1    0      -1.724530      0.409118      0.152253    -3.877250   -5.736629   -2.015605
             2    1      -1.244131      1.213760      0.477180     1.379484    2.758507    1.348096
             3    1      -1.273355     -0.051529     -0.763580     0.605837    0.020040    1.379134
             4    1      -2.093939     -0.403875      0.921762     1.876590    1.465823   -1.034633
             5    1      -2.720376      0.501494     -0.307116     0.015340    1.492259    0.323008
 Energy
       -112.923995483041
END_CFG

BEGIN_CFG
 Size
     5
 AtomData:  id type       cartes_x      cartes_y      cartes_z           fx          fy          fz
             1    0      -1.326535      1.904060     -0.387195     0.518094   -4.383808    0.031892
             2    1      -1.073801      1.547131      0.689941    -0.558344    1.096857   -1.868392
             3    1      -0.825052      2.787017     -0.703922     0.110724    0.188262    0.018934
             4    1      -0.989166      0.929702     -1.054230    -0.281817    2.493183    1.362787
             5    1      -2.396825      1.871130     -0.582113     0.211343    0.605507    0.454779
 Energy
       -113.159546538768
END_CFG

BEGIN_CFG
 Size
     5
 AtomData:  id type       cartes_x      cartes_y      cartes_z           fx          fy          fz
             1    0      -1.450672      1.742005     -0.497139     0.196775    4.111579    0.659201
             2    1      -1.001029      0.848714     -0.424456     1.603338   -2.612599   -0.207695
             3    1      -0.811885      2.631361     -0.414509     1.089753   -0.601070    0.547895
             4    1      -1.857676      2.051680     -1.396969    -1.537708   -0.707604   -1.792241
             5    1      -2.086922      1.897578      0.322775    -1.352158   -0.190306    0.792840
 Energy
       -113.142997004504
END_CFG

BEGIN_CFG
 Size
     5
 AtomData:  id type       cartes_x      cartes_y      cartes_z           fx          fy          fz
             1    0      -1.947741      1.776656     -0.447599    -1.288970    0.718339   -0.371980
             2    1      -1.932641      1.792992      0.592805     0.397251    0.441132    1.898413
             3    1      -0.982329      2.016296     -0.832271     0.318593   -0.673213   -0.427818
             4    1      -2.454493      0.846698     -0.620727     0.540156   -0.465912   -1.014332
             5    1      -2.627008      2.569519     -0.760544     0.032969   -0.020346   -0.084283
 Energy
       -113.406827025135
END_CFG

BEGIN_CFG
 Size
     5
 AtomData:  id type       cartes_x      cartes_y      cartes_z           fx          fy          fz
             1    0      -0.796370      1.513875     -1.591092     3.640272    0.765806    1.063559
             2    1      -0.454307      0.741215     -2.299356    -0.419795    0.255282    0.708713
             3    1      -0.884079      1.164146     -0.519120    -0.500872    0.315342   -1.717681
             4    1       0.083746      2.290544     -1.540301    -1.057074   -1.479101    0.001027
             5    1      -1.516507      2.129436     -2.028573    -1.662531    0.142670   -0.055619
 Energy
       -113.259284982047
END_CFG

BEGIN_CFG
 Size
     5
 AtomData:  id type       cartes_x      cartes_y      cartes_z           fx          fy          fz
             1    0      -1.266253      1.756576     -1.360209     0.386247   -2.743464   -3.367435
             2    1      -1.826209      0.766551     -1.316197     0.857505    1.390853    1.060334
             3    1      -1.531572      2.005017     -2.404969     0.008607    0.615730    0.408201
             4    1      -1.479822      2.540301     -0.727953    -0.689836    0.885513    1.322228
             5    1      -0.179443      1.588380     -1.448554    -0.562523   -0.148632    0.576671
 Energy
       -113.307385183363
END_CFG

BEGIN_CFG
 Size
     5
 AtomData:  id type       cartes_x      cartes_y      cartes_z           fx          fy          fz
             1    0      -1.071385      0.412672     -0.922035    -0.279052    2.270842   -1.972399
             2    1      -1.271316     -0.602917     -0.769317    -0.311772   -1.026202    0.404758
             3    1      -0.038352      0.558173     -1.207215     0.288352   -0.192859    0.209809
             4    1      -1.630288      0.765389     -1.883634     0.535662   -0.507180    1.972302
             5    1      -1.266203      1.064586     -0.056371    -0.233190   -0.544601   -0.614470
 Energy
       -113.437149992337
END_CFG

BEGIN_CFG
 Size
     5
 AtomData:  id type       cartes_x      cartes_y      cartes_z           fx          fy          fz
             1    0      -1.431294      1.897002     -1.655544    -4.856165    0.373894   -0.488696
             2    1      -1.395602      1.802682     -0.594868    -0.233613   -0.077750    0.329132
             3    1      -1.569983      2.922255     -1.988204    -0.145739   -0.011339    0.345693
             4    1      -0.634810      1.539701     -2.109088     4.031258   -1.556445   -1.671852
             5    1      -2.288444      1.263325     -2.165089     1.204260    1.271639    1.485724
 Energy
       -113.218510783836
END_CFG

BEGIN_CFG
 Size
     5
 AtomData:  id type       cartes_x      cartes_y      cartes_z           fx          fy          fz
             1    0      -1.910236      1.609059     -1.075856    -1.015410   -3.537269    0.221615
             2    1      -1.395561      1.664037     -0.144389    -0.399851    0.964651    0.740126
             3    1      -2.511908      2.373728     -1.489218    -0.278400    0.743029    0.444022
             4    1      -1.116622      1.386572     -1.743413     0.434662   -0.292821   -1.005366
             5    1      -2.570337      0.614305     -0.974404     1.258998    2.122410   -0.400398
 Energy
       -113.265962796345
END_CFG

BEGIN_CFG
 Size
     5
 AtomData:  id type       cartes_x      cartes_y      cartes_z           fx          fy          fz
             1    0      -2.080011      1.168339     -0.674974    -1.750667   -2.324480   -1.868822
             2    1      -3.210200      1.288357     -0.885302     1.810537    0.065821   -0.284769
             3    1      -1.664996      2.132301     -0.487477     0.388839    0.002204    0.085426
             4    1      -2.145152      0.481262      0.179267     0.802310    0.508697   -0.175566
             5    1      -1.562967      0.563888     -1.595323    -1.251020    1.747758    2.243731
 Energy
       -113.196981718831
END_CFG

BEGIN_CFG
 Size
     5
 AtomData:  id type       cartes_x      cartes_y      cartes_z           fx          fy          fz
             1    0      -2.236018      2.500013     -0.505094     1.357315   -0.612833    2.337878
             2    1      -2.039364      2.197251      0.592742     0.577645   -0.383524   -1.693512
             3    1      -2.275168      1.580896     -1.174878    -0.421616    1.941297    1.003251
             4    1      -3.011762      3.156239     -0.215857    -2.073541   -0.086736   -1.171294
             5    1      -1.494723      3.263611     -0.743567     0.560198   -0.858203   -0.476323
 Energy
       -112.984351382604
END_CFG

BEGIN_CFG
 Size
     5
 AtomData:  id type       cartes_x      cartes_y      cartes_z           fx          fy          fz
             1    0      -2.093234      3.371679      0.692720    -1.599474    1.308399    0.280712
             2    1      -1.360026      4.080332      0.393866     0.124330    0.954909   -0.671667
             3    1      -2.241933      3.583545      1.732804     0.579548   -0.813692    0.896538
             4    1      -3.147600      3.629399      0.371755     1.529750   -0.673323   -0.739616
             5    1      -1.659096      2.443023      0.407274    -0.634154   -0.776294    0.234034
 Energy
       -113.296074844426
END_CFG

BEGIN_CFG
 Size
     5
 AtomData:  id type       cartes_x      cartes_y      cartes_z           fx          fy          fz
             1    0      -2.365806      3.095026      1.012906     0.222830   -3.410537    0.520968
             2    1      -2.974188      2.831578      1.865386    -0.259765   -0.899961   -0.160410
             3    1      -2.885985      3.752707      0.479889    -2.078344    2.709624   -2.269385
             4    1      -1.565135      3.555235      1.440334     2.528312    1.150164    0.764191
             5    1      -2.047490      2.278383      0.317373    -0.413033    0.450711    1.144636
 Energy
       -113.257371179837
END_CFG

BEGIN_CFG
 Size
     5
 AtomData:  id type       cartes_x      cartes_y      cartes_z           fx          fy          fz
             1    0      -2.486775      3.083284      0.982149     0.953690    1.117709   -0.261192
             2    1      -2.946352      3.638864      1.818242     0.643922   -0.623212   -0.644379
             3    1      -1.948701      3.705980      0.270991    -0.391279    0.846913    0.180594
             4    1      -1.720018      2.379078      1.174556     0.497135   -0.679255    1.384024
             5    1      -3.164376      2.551455      0.401683    -1.703468   -0.662155   -0.659047
 Energy
       -113.364591549527
END_CFG

BEGIN_CFG
 Size
     5
 AtomData:  id type       cartes_x      cartes_y      cartes_z           fx          fy          fz
             1    0      -1.354952      1.828860      1.911503     2.567742    2.030361   -0.644894
             2    1      -2.303632      1.963444      1.575986    -2.927186   -0.249232   -0.670980
             3    1      -1.109321      2.855582      2.303688     0.167822   -1.388365    0.387746
             4    1      -1.214566      0.983505      2.539975     0.132431   -0.009239    0.464549
             5    1      -0.751430      1.765455      0.992710     0.059190   -0.383524    0.463579
 Energy
       -113.354183148400
END_CFG

BEGIN_CFG
 Size
     5
 AtomData:  id type       cartes_x      cartes_y      cartes_z           fx          fy          fz
             1    0      -1.985953      2.205059      0.751147     2.199461   -1.482336   -2.561867
             2    1      -2.383691      1.453137      0.056395    -1.209121    0.519410    0.583038
             3    1      -1.459527      2.859463      0.028585    -0.294804    0.187977    0.877992
             4    1      -2.553773      2.702753      1.465588    -1.085850    0.412700    0.458802
             5    1      -1.229056      1.580924      1.208366     0.390315    0.362249    0.642034
 Energy
       -113.329207242302
END_CFG

BEGIN_CFG
 Size
     5
 AtomData:  id type       cartes_x      cartes_y      cartes_z           fx          fy          fz
             1    0      -0.895493      2.570221      0.517062     1.002300   -1.246621   -3.926374
             2    1      -0.544419      1.979073      1.279826     0.374754   -1.437815    1.685057
             3    1      -1.321594      3.430499      0.878929    -1.249641    1.591888    0.498037
             4    1       0.021053      2.844800     -0.063895    -0.732794    0.000321    0.338929
             5    1      -1.522212      1.959819     -0.225433     0.605381    1.092228    1.404351
 Energy
       -113.368936721177
END_CFG

BEGIN_CFG
 Size
     5
 AtomData:  id type       cartes_x      cartes_y      cartes_z           fx          fy          fz
             1    0      -0.925684      2.489003      0.863692     0.415010   -2.870482    2.226384
             2    1       0.075648      2.229869      1.383049    -1.860051   -0.228567   -0.112174
             3    1      -0.535529      3.187286      0.232213    -0.212978    2.441100   -1.542817
             4    1      -1.220036      1.610091      0.222613     0.118166    0.859685    1.023180
             5    1      -1.737720      2.751936      1.634355     1.539852   -0.201735   -1.594572
 Energy
       -113.162946414887
END_CFG

BEGIN_CFG
 Size
     5
 AtomData:  id type       cartes_x      cartes_y      cartes_z           fx          fy          fz
             1    0      -1.270365      2.199435      1.900101    -2.009178    0.307054   -3.161206
             2    1      -0.905749      1.640827      2.669225     0.898093   -0.554253    2.489231
             3    1      -1.733540      1.377171      1.272930     0.073832    1.105080    0.297754
             4    1      -2.072600      2.971417      2.116493     1.379231   -1.103003   -0.050208
             5    1      -0.456748      2.585373      1.278986    -0.341978    0.245123    0.424428
 Energy
       -113.337102019340
END_CFG

BEGIN_CFG
 Size
     5
 AtomData:  id type       cartes_x      cartes_y      cartes_z           fx          fy          fz
             1    0      -1.159231      2.099953      2.211603    -0.599568   -0.851992   -0.564427
             2    1      -0.230558      2.394311      2.619509     1.026042   -0.198774    0.148759
             3    1      -1.134488      1.968974      1.137985     0.317801    0.373271   -0.151766
             4    1      -1.492045      1.121263      2.566814     0.069387    0.512137    0.436541
             5    1      -1.822116      2.896239      2.456961    -0.813662    0.165357    0.130893
 Energy
       -113.531843298760
END_CFG

