BEGIN_CFG
 Size
    2
 AtomData:  id type       cartes_x      cartes_y      cartes_z           fx          fy          fz
             1    0       0.388362     -0.000000     -0.000000     0.000624    0.000000    0.000000
             2    0      -0.388362      0.000000      0.000000    -0.000624    0.000000    0.000000
 Energy
        -26.740250918873
 PlusStress:  xx          yy          zz          yz          xz          xy
         0.00048     0.00000     0.00000     0.00000     0.00000     0.00000
END_CFG

BEGIN_CFG
 Size
    2
 AtomData:  id type       cartes_x      cartes_y      cartes_z           fx          fy          fz
             1    0       1.474026      5.312450     -1.627169    -0.179279   -0.421121    0.376933
             2    0       1.702476      5.849071     -2.107483     0.179279    0.421121   -0.376933
 Energy
        -26.734114488552
 PlusStress:  xx          yy          zz          yz          xz          xy
         0.04096     0.22598     0.18105    -0.20227    -0.08611     0.09621
END_CFG

BEGIN_CFG
 Size
    2
 AtomData:  id type       cartes_x      cartes_y      cartes_z           fx          fy          fz
             1    0      -1.760653      6.091512     -3.725743     0.046106   -0.153452   -0.224627
             2    0      -1.888737      6.517806     -3.101722    -0.046106    0.153452    0.224627
 Energy
        -26.738854101803
 PlusStress:  xx          yy          zz          yz          xz          xy
         0.00591     0.06542     0.14017     0.09576    -0.02877    -0.01965
END_CFG

BEGIN_CFG
 Size
    2
 AtomData:  id type       cartes_x      cartes_y      cartes_z           fx          fy          fz
             1    0       1.264859      6.447399      2.918265    -0.028251    0.496595    0.366071
             2    0       1.299383      5.840529      2.470903     0.028251   -0.496595   -0.366071
 Energy
        -26.733618688997
 PlusStress:  xx          yy          zz          yz          xz          xy
         0.00098     0.30137     0.16377     0.22216    -0.01264    -0.01714
END_CFG

BEGIN_CFG
 Size
    2
 AtomData:  id type       cartes_x      cartes_y      cartes_z           fx          fy          fz
             1    0      -1.462122      3.229215      4.975702     0.445775    0.531587   -0.914626
             2    0      -1.140522      3.612723      4.315855    -0.445775   -0.531587    0.914626
 Energy
        -26.709199653421
 PlusStress:  xx          yy          zz          yz          xz          xy
        -0.14336    -0.20387    -0.60351     0.35077     0.29414    -0.17096
END_CFG

BEGIN_CFG
 Size
    2
 AtomData:  id type       cartes_x      cartes_y      cartes_z           fx          fy          fz
             1    0       2.081150      4.042686      1.058001     1.441824    0.639173   -1.437486
             2    0       1.600221      3.829486      1.537483    -1.441824   -0.639173    1.437486
 Energy
        -26.676232763504
 PlusStress:  xx          yy          zz          yz          xz          xy
         0.69341     0.13627     0.68925    -0.30647    -0.69133     0.30740
END_CFG

BEGIN_CFG
 Size
    2
 AtomData:  id type       cartes_x      cartes_y      cartes_z           fx          fy          fz
             1    0       3.118380      4.391437      1.462239    -2.742638   -0.953186   -0.088894
             2    0       2.217696      4.078410      1.433046     2.742638    0.953186    0.088894
 Energy
        -26.442208665745
 PlusStress:  xx          yy          zz          yz          xz          xy
        -2.47025    -0.29837    -0.00260    -0.02783    -0.08007    -0.85852
END_CFG

BEGIN_CFG
 Size
    2
 AtomData:  id type       cartes_x      cartes_y      cartes_z           fx          fy          fz
             1    0      -1.472790      7.033115      4.004277    -1.910574   -2.224278   -0.735203
             2    0      -1.035556      7.542140      4.172528     1.910574    2.224278    0.735203
 Energy
        -26.624908775177
 PlusStress:  xx          yy          zz          yz          xz          xy
         0.83537     1.13221     0.12370     0.37424     0.32146     0.97253
END_CFG

BEGIN_CFG
 Size
    2
 AtomData:  id type       cartes_x      cartes_y      cartes_z           fx          fy          fz
             1    0      -0.225471      4.300783      4.341409     0.194406    0.004706   -0.289383
             2    0       0.215441      4.311456      3.685091    -0.194406   -0.004706    0.289383
 Energy
        -26.737775458233
 PlusStress:  xx          yy          zz          yz          xz          xy
        -0.08572    -0.00005    -0.18993     0.00309     0.12759    -0.00207
END_CFG

BEGIN_CFG
 Size
    2
 AtomData:  id type       cartes_x      cartes_y      cartes_z           fx          fy          fz
             1    0       0.697762      4.552799      2.854951    -0.165545    1.139115    0.551998
             2    0       0.589475      5.297921      3.216026     0.165545   -1.139115   -0.551998
 Energy
        -26.700884133353
 PlusStress:  xx          yy          zz          yz          xz          xy
        -0.01793    -0.84878    -0.19931    -0.41131     0.05977     0.12335
END_CFG

BEGIN_CFG
 Size
    2
 AtomData:  id type       cartes_x      cartes_y      cartes_z           fx          fy          fz
             1    0       0.247806      5.515333      2.436494     1.117944   -0.794196    0.575696
             2    0      -0.299788      5.904348      2.154505    -1.117944    0.794196   -0.575696
 Energy
        -26.706367033110
 PlusStress:  xx          yy          zz          yz          xz          xy
         0.61218     0.30895     0.16234    -0.22395     0.31525    -0.43490
END_CFG

BEGIN_CFG
 Size
    2
 AtomData:  id type       cartes_x      cartes_y      cartes_z           fx          fy          fz
             1    0      -1.040148      7.785676      2.572052     0.552872    0.344334    0.047890
             2    0      -0.359486      8.209599      2.631011    -0.552872   -0.344334   -0.047890
 Energy
        -26.731084453821
 PlusStress:  xx          yy          zz          yz          xz          xy
        -0.37632    -0.14597    -0.00282    -0.02030    -0.03260    -0.23438
END_CFG

BEGIN_CFG
 Size
    2
 AtomData:  id type       cartes_x      cartes_y      cartes_z           fx          fy          fz
             1    0       0.681354      7.588105      5.565223    -1.438819   -0.853532    2.053284
             2    0       0.176416      7.288567      6.285801     1.438819    0.853532   -2.053284
 Energy
        -26.510325809215
 PlusStress:  xx          yy          zz          yz          xz          xy
        -0.72651    -0.25567    -1.47955     0.61504     1.03678    -0.43098
END_CFG

BEGIN_CFG
 Size
    2
 AtomData:  id type       cartes_x      cartes_y      cartes_z           fx          fy          fz
             1    0       2.088060      8.304691      7.730366    -0.411367    0.797835   -2.375045
             2    0       1.939007      8.593775      6.869803     0.411367   -0.797835    2.375045
 Energy
        -26.534961721427
 PlusStress:  xx          yy          zz          yz          xz          xy
        -0.06132    -0.23064    -2.04388     0.68659    -0.35401     0.11892
END_CFG

BEGIN_CFG
 Size
    2
 AtomData:  id type       cartes_x      cartes_y      cartes_z           fx          fy          fz
             1    0       3.320472      9.891695      3.694510     0.573980    0.084281    0.496513
             2    0       3.928693      9.981004      4.220643    -0.573980   -0.084281   -0.496513
 Energy
        -26.727466131027
 PlusStress:  xx          yy          zz          yz          xz          xy
        -0.34911    -0.00753    -0.26123    -0.04434    -0.30199    -0.05126
END_CFG

BEGIN_CFG
 Size
    2
 AtomData:  id type       cartes_x      cartes_y      cartes_z           fx          fy          fz
             1    0       3.160252     11.633037      9.749455     0.034495   -0.025118    0.000474
             2    0       3.789464     11.174871      9.758096    -0.034495    0.025118   -0.000474
 Energy
        -26.740215724842
 PlusStress:  xx          yy          zz          yz          xz          xy
        -0.02170    -0.01151    -0.00000     0.00022    -0.00030     0.01580
END_CFG

BEGIN_CFG
 Size
    2
 AtomData:  id type       cartes_x      cartes_y      cartes_z           fx          fy          fz
             1    0       1.828040     10.106676     12.877009     0.031478    0.048663    0.116327
             2    0       1.641099      9.817674     12.186165    -0.031478   -0.048663   -0.116327
 Energy
        -26.739933598744
 PlusStress:  xx          yy          zz          yz          xz          xy
         0.00588     0.01406     0.08036     0.03362     0.02175     0.00910
END_CFG

BEGIN_CFG
 Size
    2
 AtomData:  id type       cartes_x      cartes_y      cartes_z           fx          fy          fz
             1    0      -0.199036     11.365494     14.121974    -0.100624    0.162595    0.482749
             2    0      -0.052137     11.128125     13.417221     0.100624   -0.162595   -0.482749
 Energy
        -26.735490909753
 PlusStress:  xx          yy          zz          yz          xz          xy
         0.01478     0.03860     0.34022     0.11459    -0.07092    -0.02389
END_CFG

BEGIN_CFG
 Size
    2
 AtomData:  id type       cartes_x      cartes_y      cartes_z           fx          fy          fz
             1    0      -3.638841     10.538988     16.052024    -0.385427    0.026418    0.547098
             2    0      -4.101987     10.570733     16.709442     0.385427   -0.026418   -0.547098
 Energy
        -26.730581755609
 PlusStress:  xx          yy          zz          yz          xz          xy
        -0.17851    -0.00084    -0.35967    -0.01737     0.25339     0.01224
END_CFG

BEGIN_CFG
 Size
    2
 AtomData:  id type       cartes_x      cartes_y      cartes_z           fx          fy          fz
             1    0      -3.799826     13.374588     19.627285    -0.580348   -1.057873   -1.430158
             2    0      -4.069813     12.882449     18.961953     0.580348    1.057873    1.430158
 Energy
        -26.644771628863
 PlusStress:  xx          yy          zz          yz          xz          xy
        -0.15669    -0.52062    -0.95153    -0.70384    -0.38612    -0.28561
END_CFG

BEGIN_CFG
 Size
    2
 AtomData:  id type       cartes_x      cartes_y      cartes_z           fx          fy          fz
             1    0      -4.404139     16.212205     19.989760    -0.464760   -0.297449   -2.775820
             2    0      -4.289862     16.285343     20.672290     0.464760    0.297449    2.775820
 Energy
        -26.636858435169
 PlusStress:  xx          yy          zz          yz          xz          xy
         0.05311     0.02175     1.89458     0.20302     0.31721     0.03399
END_CFG

