BEGIN_CFG
 Size
    32
 Supercell
         7.220000      0.000000      0.000000
         0.000000      7.220000      0.000000
         0.000000      0.000000      7.220000
 AtomData:  id type       cartes_x      cartes_y      cartes_z           fx          fy          fz
             1    0       0.000000      0.000000      0.000000     0.000000    0.000000    0.000000
             2    0       0.000000      1.805000      1.805000     0.000000   -0.000000   -0.000000
             3    0       1.805000      0.000000      1.805000    -0.000000    0.000000   -0.000000
             4    0       1.805000      1.805000      0.000000    -0.000000   -0.000000    0.000000
             5    0       0.000000      0.000000      3.610000     0.000000    0.000000    0.000000
             6    0       0.000000      1.805000      5.415000     0.000000   -0.000000   -0.000000
             7    0       1.805000      0.000000      5.415000    -0.000000    0.000000   -0.000000
             8    0       1.805000      1.805000      3.610000    -0.000000   -0.000000    0.000000
             9    0       0.000000      3.610000      0.000000     0.000000   -0.000000    0.000000
            10    0       0.000000      5.415000      1.805000     0.000000   -0.000000   -0.000000
            11    0       1.805000      3.610000      1.805000    -0.000000    0.000000   -0.000000
            12    0       1.805000      5.415000      0.000000    -0.000000   -0.000000    0.000000
            13    0       0.000000      3.610000      3.610000     0.000000   -0.000000    0.000000
            14    0       0.000000      5.415000      5.415000     0.000000   -0.000000   -0.000000
            15    0       1.805000      3.610000      5.415000    -0.000000   -0.000000   -0.000000
            16    0       1.805000      5.415000      3.610000    -0.000000   -0.000000    0.000000
            17    0       3.610000      0.000000      0.000000    -0.000000    0.000000    0.000000
            18    0       3.610000      1.805000      1.805000     0.000000    0.000000    0.000000
            19    0       5.415000      0.000000      1.805000    -0.000000    0.000000    0.000000
            20    0       5.415000      1.805000      0.000000    -0.000000    0.000000    0.000000
            21    0       3.610000      0.000000      3.610000     0.000000    0.000000    0.000000
            22    0       3.610000      1.805000      5.415000    -0.000000    0.000000   -0.000000
            23    0       5.415000      0.000000      5.415000    -0.000000    0.000000   -0.000000
            24    0       5.415000      1.805000      3.610000    -0.000000    0.000000    0.000000
            25    0       3.610000      3.610000      0.000000    -0.000000   -0.000000    0.000000
            26    0       3.610000      5.415000      1.805000     0.000000   -0.000000    0.000000
            27    0       5.415000      3.610000      1.805000    -0.000000   -0.000000    0.000000
            28    0       5.415000      5.415000      0.000000    -0.000000   -0.000000    0.000000
            29    0       3.610000      3.610000      3.610000     0.000000    0.000000    0.000000
            30    0       3.610000      5.415000      5.415000    -0.000000   -0.000000   -0.000000
            31    0       5.415000      3.610000      5.415000    -0.000000   -0.000000   -0.000000
            32    0       5.415000      5.415000      3.610000    -0.000000   -0.000000    0.000000
 Energy
         -0.182811018001
 PlusStress:  xx          yy          zz          yz          xz          xy
        -5.23875    -5.23875    -5.23875     0.00000     0.00000     0.00000
END_CFG

BEGIN_CFG
 Size
    32
 Supercell
         7.220000      0.000000      0.000000
         0.000000      7.220000      0.000000
         0.000000      0.000000      7.220000
 AtomData:  id type       cartes_x      cartes_y      cartes_z           fx          fy          fz
             1    0       0.005511     -0.018809      0.013573    -0.028891    0.090627   -0.172343
             2    0       0.017011      1.769714      1.781449    -0.084395    0.208440    0.210025
             3    0       1.807312     -0.005720      1.804696     0.056315    0.035525    0.032311
             4    0       1.789572      1.820905      0.014067     0.113302   -0.172671   -0.198013
             5    0       0.001194      0.020387      3.618455    -0.028543   -0.182301   -0.032551
             6    0      -0.015541      1.811669      5.397658     0.092495   -0.098702    0.173090
             7    0       1.820888     -0.000903      5.411657    -0.114367    0.148895    0.132842
             8    0       1.792685      1.827111      3.607205     0.127982   -0.146370    0.013688
             9    0      -0.007747      3.603631      0.009627     0.051234    0.099166   -0.011482
            10    0       0.006609      5.422465      1.812792    -0.025162   -0.092154    0.012363
            11    0       1.843734      3.602650      1.795736    -0.304865    0.071172    0.082015
            12    0       1.790282      5.426141      0.020419     0.143402   -0.090149   -0.115667
            13    0      -0.002061      3.594805      3.595088     0.078772    0.095280   -0.008306
            14    0       0.011767      5.428443      5.424823    -0.100093   -0.096954   -0.120536
            15    0       1.792964      3.614199      5.417110     0.023119    0.033355    0.022550
            16    0       1.808955      5.430761      3.614044    -0.107303   -0.157499   -0.039949
            17    0       3.622279      0.001222      0.005229    -0.146841    0.003904   -0.031900
            18    0       3.621417      1.778646      1.799218    -0.066867    0.159831    0.021882
            19    0       5.406493     -0.011555      1.800024     0.078462   -0.061523    0.084817
            20    0       5.442038      1.789341      0.017512    -0.161777    0.122102   -0.121734
            21    0       3.579564     -0.006057      3.612944     0.245122    0.058601    0.010498
            22    0       3.620602      1.817863      5.429348    -0.039799   -0.035200   -0.066140
            23    0       5.408693     -0.008362      5.430517     0.035177    0.019871   -0.170976
            24    0       5.411540      1.781928      3.589503    -0.065073    0.111326    0.098318
            25    0       3.593371      3.618992      0.002576     0.197158   -0.090980   -0.047704
            26    0       3.622488      5.407273      1.807867    -0.085687    0.076508   -0.047964
            27    0       5.426314      3.604405      1.813261    -0.087130   -0.090359   -0.119338
            28    0       5.403028      5.408434     -0.006904     0.116752   -0.046294    0.077725
            29    0       3.588372      3.618807      3.601510     0.167696   -0.116741    0.117459
            30    0       3.610226      5.423695      5.423076    -0.016726   -0.120139   -0.053648
            31    0       5.427034      3.608219      5.407344    -0.098124    0.008549    0.012353
            32    0       5.413558      5.384483      3.583828     0.034655    0.254882    0.256315
 Energy
         -0.115263103785
 PlusStress:  xx          yy          zz          yz          xz          xy
        -4.95964    -4.97717    -4.94743     0.04448     0.00023    -0.03106
END_CFG

BEGIN_CFG
 Size
    32
 Supercell
         7.220000      0.000000      0.000000
         0.000000      7.220000      0.000000
         0.000000      0.000000      7.220000
 AtomData:  id type       cartes_x      cartes_y      cartes_z           fx          fy          fz
             1    0       0.010913     -0.037275      0.026492    -0.075599    0.170191   -0.338941
             2    0       0.033703      1.735217      1.758693    -0.183914    0.409063    0.450750
             3    0       1.809838     -0.011305      1.804515     0.117344    0.069729    0.063835
             4    0       1.774573      1.836155      0.027383     0.243169   -0.333747   -0.404270
             5    0       0.002280      0.040084      3.626787    -0.036206   -0.359595   -0.068366
             6    0      -0.030732      1.817964      5.380971     0.174708   -0.177654    0.336159
             7    0       1.836343     -0.001241      5.408817    -0.232229    0.283428    0.268603
             8    0       1.780853      1.848668      3.604462     0.251110   -0.298183    0.023517
             9    0      -0.015299      3.597638      0.019211     0.098808    0.198231   -0.027042
            10    0       0.013123      5.429580      1.820631    -0.058045   -0.177437    0.035113
            11    0       1.881313      3.595569      1.786782    -0.606244    0.136645    0.163376
            12    0       1.776107      5.436939      0.040400     0.296070   -0.195118   -0.232333
            13    0      -0.003822      3.579971      3.580145     0.142595    0.185817   -0.012682
            14    0       0.023154      5.441518      5.434191    -0.189849   -0.183878   -0.224799
            15    0       1.781014      3.618525      5.419306     0.045215    0.059860    0.042607
            16    0       1.812503      5.445924      3.617936    -0.216949   -0.317016   -0.074244
            17    0       3.634001      0.002460      0.010337    -0.286816   -0.001982   -0.070150
            18    0       3.632582      1.752897      1.793520    -0.144500    0.322264    0.042324
            19    0       5.398283     -0.023343      1.795369     0.167365   -0.125617    0.162607
            20    0       5.468462      1.774145      0.034564    -0.316516    0.220342   -0.247412
            21    0       3.550056     -0.011892      3.615927     0.492445    0.135377    0.004257
            22    0       3.631054      1.830593      5.443447    -0.074444   -0.071849   -0.125992
            23    0       5.402519     -0.016649      5.445387     0.078689    0.057415   -0.320708
            24    0       5.407833      1.759278      3.569379    -0.119447    0.216812    0.198098
            25    0       3.577488      3.627639      0.004971     0.380832   -0.161521   -0.116366
            26    0       3.634652      5.399836      1.810552    -0.175623    0.154301   -0.099546
            27    0       5.437299      3.598467      1.821070    -0.177843   -0.186055   -0.248578
            28    0       5.391499      5.401692     -0.013514     0.230982   -0.091464    0.151299
            29    0       3.567380      3.627172      3.593466     0.332576   -0.217788    0.247943
            30    0       3.610389      5.431935      5.430948    -0.038682   -0.236511   -0.108575
            31    0       5.438695      3.606470      5.399735    -0.185385    0.030682    0.024159
            32    0       5.412248      5.354932      3.558626     0.066382    0.485258    0.505358
 Energy
          0.079559905365
 PlusStress:  xx          yy          zz          yz          xz          xy
        -4.15894    -4.23470    -4.10735     0.17399    -0.00092    -0.11417
END_CFG

BEGIN_CFG
 Size
    32
 Supercell
         7.220000      0.000000      0.000000
         0.000000      7.220000      0.000000
         0.000000      0.000000      7.220000
 AtomData:  id type       cartes_x      cartes_y      cartes_z           fx          fy          fz
             1    0       0.016029     -0.055095      0.038125    -0.137633    0.239514   -0.494083
             2    0       0.049697      1.702272      1.737646    -0.293455    0.596502    0.711254
             3    0       1.812808     -0.016626      1.804577     0.178370    0.101287    0.092940
             4    0       1.760496      1.850138      0.039165     0.383418   -0.475577   -0.609369
             5    0       0.003227      0.058418      3.634860    -0.025659   -0.526043   -0.106111
             6    0      -0.045261      1.823584      5.365560     0.246045   -0.236844    0.484442
             7    0       1.850920     -0.000503      5.406996    -0.349641    0.397863    0.400246
             8    0       1.769972      1.869095      3.601806     0.366574   -0.451220    0.031842
             9    0      -0.022477      3.592397      0.028691     0.142659    0.291649   -0.046575
            10    0       0.019418      5.436023      1.828604    -0.096437   -0.253571    0.064088
            11    0       1.916594      3.589008      1.778449    -0.895587    0.191804    0.241462
            12    0       1.763053      5.446996      0.059501     0.452222   -0.311425   -0.347608
            13    0      -0.005041      3.565842      3.565154     0.188525    0.269866   -0.009845
            14    0       0.033822      5.453896      5.442706    -0.267693   -0.259987   -0.312754
            15    0       1.769236      3.623079      5.421664     0.066376    0.077552    0.059033
            16    0       1.815228      5.459886      3.621546    -0.323364   -0.472766   -0.100593
            17    0       3.644635      0.003692      0.015179    -0.412958   -0.017092   -0.114302
            18    0       3.643200      1.728370      1.787983    -0.229448    0.482974    0.060508
            19    0       5.390706     -0.035610      1.791332     0.262632   -0.185784    0.228787
            20    0       5.493689      1.759785      0.050677    -0.464024    0.295641   -0.372428
            21    0       3.522413     -0.017214      3.618926     0.735442    0.223481   -0.015421
            22    0       3.641225      1.843050      5.457068    -0.104277   -0.110017   -0.179444
            23    0       5.396643     -0.024719      5.459040     0.126401    0.106201   -0.447734
            24    0       5.403671      1.737449      3.550006    -0.160227    0.316003    0.298006
            25    0       3.563049      3.635673      0.006924     0.548878   -0.214333   -0.202504
            26    0       3.646151      5.392985      1.812859    -0.266646    0.227443   -0.150153
            27    0       5.447610      3.591822      1.827936    -0.270114   -0.280808   -0.380258
            28    0       5.380845      5.394602     -0.019549     0.338501   -0.131114    0.217769
            29    0       3.547649      3.634711      3.586363     0.491123   -0.299616    0.385319
            30    0       3.610406      5.439280      5.438408    -0.065364   -0.343092   -0.162890
            31    0       5.449652      3.604836      5.392216    -0.259322    0.062918    0.035617
            32    0       5.411191      5.327220      3.535341     0.094684    0.688592    0.740759
 Energy
          0.377719788919
 PlusStress:  xx          yy          zz          yz          xz          xy
        -2.94721    -3.12234    -2.82872     0.37193    -0.00421    -0.23091
END_CFG

BEGIN_CFG
 Size
    32
 Supercell
         7.220000      0.000000      0.000000
         0.000000      7.220000      0.000000
         0.000000      0.000000      7.220000
 AtomData:  id type       cartes_x      cartes_y      cartes_z           fx          fy          fz
             1    0       0.020623     -0.072007      0.047884    -0.208928    0.300399   -0.629465
             2    0       0.064579      1.671592      1.719298    -0.404384    0.764887    0.971871
             3    0       1.816455     -0.021564      1.804991     0.233028    0.128697    0.117072
             4    0       1.747874      1.862317      0.048634     0.522817   -0.591549   -0.799548
             5    0       0.004075      0.074757      3.642531    -0.001794   -0.675866   -0.143494
             6    0      -0.058856      1.828305      5.351986     0.306896   -0.277245    0.612592
             7    0       1.864174      0.001744      5.406694    -0.460631    0.487075    0.518399
             8    0       1.760479      1.887812      3.599270     0.471672   -0.600373    0.041657
             9    0      -0.029115      3.588260      0.037995     0.183708    0.373219   -0.069342
            10    0       0.025347      5.441503      1.836821    -0.136654   -0.317998    0.092869
            11    0       1.948479      3.583175      1.771031    -1.161239    0.232720    0.311908
            12    0       1.751714      5.455870      0.077288     0.603461   -0.432434   -0.457978
            13    0      -0.005542      3.552738      3.550125     0.215377    0.344947    0.002341
            14    0       0.043476      5.465287      5.450035    -0.332937   -0.325077   -0.385152
            15    0       1.757707      3.627929      5.424246     0.086748    0.085044    0.070633
            16    0       1.816724      5.472053      3.624773    -0.418246   -0.616035   -0.116879
            17    0       3.653703      0.004863      0.019588    -0.518129   -0.040261   -0.162649
            18    0       3.652950      1.705674      1.782677    -0.316316    0.636611    0.075232
            19    0       5.384124     -0.048583      1.788163     0.357985   -0.234077    0.279169
            20    0       5.517156      1.746549      0.065379    -0.602479    0.349376   -0.490558
            21    0       3.497559     -0.021690      3.621866     0.963233    0.312654   -0.042046
            22    0       3.651000      1.855090      5.470010    -0.129755   -0.149780   -0.227081
            23    0       5.391246     -0.032387      5.470995     0.173201    0.158785   -0.551273
            24    0       5.398900      1.716819      3.531762    -0.184981    0.407574    0.396627
            25    0       3.550692      3.642894      0.008109     0.696708   -0.252857   -0.297155
            26    0       3.656640      5.386997      1.814594    -0.354704    0.288980   -0.193985
            27    0       5.456898      3.584109      1.833359    -0.361770   -0.365129   -0.503116
            28    0       5.371474      5.387015     -0.024758     0.434843   -0.160553    0.273927
            29    0       3.529782      3.641113      3.580722     0.638546   -0.359929    0.520169
            30    0       3.610177      5.445326      5.445248    -0.095417   -0.433429   -0.214753
            31    0       5.459622      3.603439      5.384832    -0.318164    0.100779    0.046907
            32    0       5.410494      5.302122      3.514867     0.118305    0.860839    0.953101
 Energy
          0.740232422536
 PlusStress:  xx          yy          zz          yz          xz          xy
        -1.49616    -1.80068    -1.28887     0.60937    -0.00603    -0.36308
END_CFG

BEGIN_CFG
 Size
    32
 Supercell
         7.220000      0.000000      0.000000
         0.000000      7.220000      0.000000
         0.000000      0.000000      7.220000
 AtomData:  id type       cartes_x      cartes_y      cartes_z           fx          fy          fz
             1    0       0.024425     -0.087779      0.055255    -0.280434    0.355101   -0.734564
             2    0       0.077924      1.643817      1.704640    -0.505109    0.908080    1.205189
             3    0       1.820985     -0.026016      1.805850     0.273846    0.150334    0.132917
             4    0       1.737237      1.872249      0.055064     0.645925   -0.677008   -0.957283
             5    0       0.004913      0.088534      3.649656     0.029219   -0.803328   -0.177266
             6    0      -0.071287      1.831974      5.340738     0.358126   -0.300435    0.714771
             7    0       1.875686      0.005841      5.408360    -0.557601    0.546454    0.611536
             8    0       1.752773      1.904251      3.596892     0.563341   -0.739435    0.056107
             9    0      -0.035056      3.585538      0.047034     0.223547    0.436545   -0.094194
            10    0       0.030760      5.445778      1.845392    -0.174055   -0.367915    0.113301
            11    0       1.975955      3.578226      1.764798    -1.388726    0.256764    0.368559
            12    0       1.742663      5.463099      0.093340     0.738700   -0.548139   -0.558688
            13    0      -0.005222      3.540942      3.535105     0.223635    0.407680    0.024896
            14    0       0.051867      5.475443      5.455902    -0.385498   -0.379259   -0.442706
            15    0       1.746506      3.633104      5.427096     0.106473    0.081475    0.076222
            16    0       1.816633      5.481882      3.627553    -0.490970   -0.735574   -0.121455
            17    0       3.660805      0.005886      0.023378    -0.595483   -0.069687   -0.212018
            18    0       3.661501      1.685392      1.777659    -0.398131    0.776815    0.085086
            19    0       5.378899     -0.062448      1.786054     0.445520   -0.261598    0.310378
            20    0       5.538340      1.734642      0.078219    -0.727756    0.382817   -0.594473
            21    0       3.476357     -0.024981      3.624646     1.160834    0.390031   -0.066532
            22    0       3.660283      1.866561      5.482091    -0.151306   -0.191228   -0.269968
            23    0       5.386505     -0.039454      5.480860     0.213618    0.207700   -0.630728
            24    0       5.393425      1.697736      3.515023    -0.191737    0.489446    0.492203
            25    0       3.540980      3.649156      0.008164     0.817068   -0.280973   -0.386131
            26    0       3.665784      5.382107      1.815590    -0.435068    0.331706   -0.224776
            27    0       5.464817      3.575007      1.836874    -0.450326   -0.427000   -0.602914
            28    0       5.363752      5.378816     -0.028927     0.515638   -0.175214    0.316506
            29    0       3.514338      3.646151      3.577056     0.768767   -0.397877    0.640312
            30    0       3.609587      5.449733      5.451269    -0.126659   -0.501416   -0.262525
            31    0       5.468381      3.602423      5.377624    -0.360660    0.139239    0.058263
            32    0       5.410247      5.280295      3.498012     0.135264    0.995898    1.129979
 Energy
          1.116869554829
 PlusStress:  xx          yy          zz          yz          xz          xy
        -0.01580    -0.45878     0.29144     0.84919     0.00123    -0.49362
END_CFG

BEGIN_CFG
 Size
    32
 Supercell
         7.220000      0.000000      0.000000
         0.000000      7.220000      0.000000
         0.000000      0.000000      7.220000
 AtomData:  id type       cartes_x      cartes_y      cartes_z           fx          fy          fz
             1    0       0.027162     -0.102201      0.059838    -0.341009    0.405357   -0.798207
             2    0       0.089350      1.619495      1.694561    -0.583366    1.020559    1.380612
             3    0       1.826554     -0.029900      1.807212     0.293284    0.164574    0.137180
             4    0       1.729054      1.879609      0.057856     0.735800   -0.730065   -1.063982
             5    0       0.005859      0.099265      3.656109     0.060895   -0.902989   -0.203690
             6    0      -0.082358      1.834503      5.332204     0.400690   -0.308424    0.785512
             7    0       1.885088      0.012012      5.412347    -0.632550    0.572296    0.667509
             8    0       1.747205      1.917883      3.594728     0.637944   -0.861491    0.077821
             9    0      -0.040150      3.584470      0.055717     0.263835    0.475843   -0.119876
            10    0       0.035515      5.448656      1.854393    -0.203667   -0.400667    0.116658
            11    0       1.998157      3.574253      1.759964    -1.562471    0.263510    0.404836
            12    0       1.736416      5.468242      0.107278     0.845201   -0.646267   -0.644325
            13    0      -0.004050      3.530695      3.520181     0.215160    0.454104    0.057823
            14    0       0.058796      5.484157      5.460087    -0.425753   -0.422997   -0.485813
            15    0       1.735706      3.638589      5.430235     0.125774    0.066477    0.074822
            16    0       1.814676      5.488916      3.629869    -0.529952   -0.819296   -0.113745
            17    0       3.665647      0.006649      0.026364    -0.639292   -0.102939   -0.258066
            18    0       3.668543      1.668060      1.772967    -0.467547    0.896509    0.088434
            19    0       5.375361     -0.077309      1.785125     0.516705   -0.260168    0.320481
            20    0       5.556762      1.724191      0.088802    -0.833796    0.397414   -0.676762
            21    0       3.459560     -0.026795      3.627172     1.311394    0.441981   -0.078956
            22    0       3.668993      1.877307      5.493148    -0.169213   -0.234489   -0.309458
            23    0       5.382571     -0.045734      5.488331     0.242572    0.246381   -0.685701
            24    0       5.387219      1.680510      3.500151    -0.179287    0.559060    0.582380
            25    0       3.534371      3.654349      0.006751     0.901082   -0.302409   -0.452225
            26    0       3.673279      5.378476      1.815729    -0.502771    0.349375   -0.236886
            27    0       5.471031      3.564279      1.838100    -0.532800   -0.454087   -0.664879
            28    0       5.357987      5.369950     -0.031894     0.577025   -0.171345    0.342680
            29    0       3.501813      3.649680      3.575822     0.874864   -0.414260    0.732353
            30    0       3.608519      5.452242      5.456290    -0.156310   -0.541853   -0.304544
            31    0       5.475766      3.601931      5.370635    -0.385946    0.173158    0.070045
            32    0       5.410512      5.262255      3.485453     0.143503    1.087148    1.257968
 Energy
          1.453613619307
 PlusStress:  xx          yy          zz          yz          xz          xy
         1.27930     0.71542     1.68314     1.05254     0.02638    -0.60918
END_CFG

BEGIN_CFG
 Size
    32
 Supercell
         7.220000      0.000000      0.000000
         0.000000      7.220000      0.000000
         0.000000      0.000000      7.220000
 AtomData:  id type       cartes_x      cartes_y      cartes_z           fx          fy          fz
             1    0       0.028605     -0.115082      0.061392    -0.379604    0.451722   -0.811464
             2    0       0.098556      1.599049      1.689728    -0.629463    1.098455    1.471103
             3    0       1.833234     -0.033165      1.809093     0.285316    0.170108    0.127532
             4    0       1.723667      1.884195      0.056600     0.778314   -0.751302   -1.103984
             5    0       0.007032      0.106571      3.661788     0.087361   -0.970312   -0.219141
             6    0      -0.091907      1.835860      5.326653     0.435320   -0.303537    0.820572
             7    0       1.892096      0.020356      5.418869    -0.679114    0.562348    0.676081
             8    0       1.744060      1.928243      3.592860     0.691862   -0.959291    0.108358
             9    0      -0.044245      3.585205      0.063946     0.305456    0.486796   -0.145120
            10    0       0.039501      5.450013      1.863836    -0.221298   -0.414400    0.095315
            11    0       2.014422      3.571280      1.756668    -1.668831    0.254450    0.415729
            12    0       1.733378      5.470925      0.118775     0.910702   -0.714251   -0.709895
            13    0      -0.002059      3.522174      3.505478     0.192920    0.480105    0.100575
            14    0       0.064111      5.491266      5.462430    -0.454363   -0.456881   -0.514418
            15    0       1.725380      3.644328      5.433656     0.144939    0.040114    0.065803
            16    0       1.810705      5.492837      3.631747    -0.525452   -0.857546   -0.094675
            17    0       3.668064      0.007028      0.028370    -0.645831   -0.137078   -0.295801
            18    0       3.673810      1.654132      1.768613    -0.517963    0.988791    0.083973
            19    0       5.373782     -0.093160      1.785414     0.563751   -0.223741    0.309484
            20    0       5.572021      1.715252      0.096815    -0.914014    0.394982   -0.731346
            21    0       3.447743     -0.026933      3.629396     1.400230    0.457264   -0.071210
            22    0       3.677061      1.887164      5.503029    -0.183625   -0.279761   -0.346946
            23    0       5.379556     -0.051082      5.493199     0.256138    0.269948   -0.716296
            24    0       5.380329      1.665409      3.487489    -0.147595    0.614021    0.664061
            25    0       3.531189      3.658393      0.003615     0.940797   -0.320461   -0.479165
            26    0       3.678866      5.376170      1.814965    -0.553124    0.338178   -0.226413
            27    0       5.475228      3.551822      1.836802    -0.605535   -0.437145   -0.677478
            28    0       5.354410      5.360430     -0.033559     0.616070   -0.146632    0.350627
            29    0       3.492611      3.651638      3.577371     0.950152   -0.411507    0.784078
            30    0       3.606860      5.452701      5.460149    -0.181231   -0.551342   -0.339141
            31    0       5.481680      3.602093      5.363909    -0.393557    0.197673    0.082794
            32    0       5.411322      5.248353      3.477679     0.141269    1.130233    1.326409
 Energy
          1.703251566088
 PlusStress:  xx          yy          zz          yz          xz          xy
         2.20962     1.57076     2.69348     1.18748     0.07470    -0.69922
END_CFG

BEGIN_CFG
 Size
    32
 Supercell
         7.220000      0.000000      0.000000
         0.000000      7.220000      0.000000
         0.000000      0.000000      7.220000
 AtomData:  id type       cartes_x      cartes_y      cartes_z           fx          fy          fz
             1    0       0.028606     -0.126245      0.059868    -0.387853    0.492906   -0.770513
             2    0       0.105366      1.582773      1.690481    -0.639500    1.140013    1.460567
             3    0       1.840996     -0.035789      1.811456     0.246884    0.166250    0.103701