BEGIN_CFG
 Size
    2
 AtomData:  id type       cartes_x      cartes_y      cartes_z           fx          fy          fz
             1    0       0.047618     -0.000000     -0.000000    -0.003626    0.000000    0.000000
             2    1      -0.884804      0.000000      0.000000     0.003626    0.000000    0.000000
 Energy
       -142.121651071094
 PlusStress:  xx          yy          zz          yz          xz          xy
        -0.00338     0.00000     0.00000     0.00000     0.00000     0.00000
END_CFG

BEGIN_CFG
 Size
    2
 AtomData:  id type       cartes_x      cartes_y      cartes_z           fx          fy          fz
             1    0      -0.705528     -0.735631      0.663813    -0.598974    0.333407   -0.873411
             2    1      -1.222016     -0.448138     -0.089319     0.598974   -0.333407    0.873411
 Energy
       -142.107175000434
 PlusStress:  xx          yy          zz          yz          xz          xy
        -0.30936    -0.09585    -0.65779     0.25110    -0.45111     0.17220
END_CFG

BEGIN_CFG
 Size
    2
 AtomData:  id type       cartes_x      cartes_y      cartes_z           fx          fy          fz
             1    0       0.452216     -0.396591      0.045269     2.400296    0.173903   -2.422463
             2    1       1.188305     -0.343261     -0.697618    -2.400296   -0.173903    2.422463
 Energy
       -141.888666030948
 PlusStress:  xx          yy          zz          yz          xz          xy
        -1.76683    -0.00927    -1.79962     0.12919     1.78315    -0.12801
END_CFG

BEGIN_CFG
 Size
    2
 AtomData:  id type       cartes_x      cartes_y      cartes_z           fx          fy          fz
             1    0       0.736369     -0.685311      0.154520     1.888187   -0.996047   -0.476018
             2    1       1.590754     -1.136012     -0.060873    -1.888187    0.996047    0.476018
 Energy
       -142.052982521388
 PlusStress:  xx          yy          zz          yz          xz          xy
        -1.61324    -0.44892    -0.10253    -0.21454     0.40670     0.85101
END_CFG

BEGIN_CFG
 Size
    2
 AtomData:  id type       cartes_x      cartes_y      cartes_z           fx          fy          fz
             1    0       1.340989     -1.151297      0.723919     0.340280    0.780868    0.421705
             2    1       1.013459     -1.902908      0.318014    -0.340280   -0.780868   -0.421705
 Energy
       -142.113564691082
 PlusStress:  xx          yy          zz          yz          xz          xy
         0.11145     0.58691     0.17117     0.31696     0.13812     0.25576
END_CFG

BEGIN_CFG
 Size
    2
 AtomData:  id type       cartes_x      cartes_y      cartes_z           fx          fy          fz
             1    0       1.478810     -1.771776      0.668846    -1.538448    0.008811   -0.129169
             2    1       0.513058     -1.766245      0.587761     1.538448   -0.008811    0.129169
 Energy
       -142.091514047847
 PlusStress:  xx          yy          zz          yz          xz          xy
        -1.48576    -0.00005    -0.01047     0.00071    -0.12475     0.00851
END_CFG

BEGIN_CFG
 Size
    2
 AtomData:  id type       cartes_x      cartes_y      cartes_z           fx          fy          fz
             1    0       2.381766     -2.430399     -0.010757    -0.098814    0.705914   -1.004658
             2    1       2.304713     -1.879940     -0.794171     0.098814   -0.705914    1.004658
 Energy
       -142.103473951593
 PlusStress:  xx          yy          zz          yz          xz          xy
        -0.00761    -0.38858    -0.78706     0.55302    -0.07741     0.05439
END_CFG

BEGIN_CFG
 Size
    2
 AtomData:  id type       cartes_x      cartes_y      cartes_z           fx          fy          fz
             1    0       2.665253     -1.459371      0.864583     0.368217   -0.424473    0.129205
             2    1       3.268481     -2.154761      1.076252    -0.368217    0.424473   -0.129205
 Energy
       -142.118051785357
 PlusStress:  xx          yy          zz          yz          xz          xy
        -0.22212    -0.29517    -0.02735     0.08985    -0.07794     0.25605
END_CFG

BEGIN_CFG
 Size
    2
 AtomData:  id type       cartes_x      cartes_y      cartes_z           fx          fy          fz
             1    0       2.714228     -1.570115      0.671301    -0.298690   -1.117965   -0.321701
             2    1       2.475549     -2.463465      0.414234     0.298690    1.117965    0.321701
 Energy
       -142.104458649670
 PlusStress:  xx          yy          zz          yz          xz          xy
        -0.07129    -0.99873    -0.08270    -0.28739    -0.07678    -0.26683
END_CFG

BEGIN_CFG
 Size
    2
 AtomData:  id type       cartes_x      cartes_y      cartes_z           fx          fy          fz
             1    0       2.145116     -1.206788      1.531789    -0.978115    2.076598   -2.380640
             2    1       1.837336     -0.553352      0.782681     0.978115   -2.076598    2.380640
 Energy
       -141.910694963103
 PlusStress:  xx          yy          zz          yz          xz          xy
        -0.30104    -1.35692    -1.78336     1.55560    -0.73271     0.63914
END_CFG

BEGIN_CFG
 Size
    2
 AtomData:  id type       cartes_x      cartes_y      cartes_z           fx          fy          fz
             1    0       2.251108     -1.407324      1.505717     0.528097    0.270201   -0.651200
             2    1       1.701935     -1.688309      2.182906    -0.528097   -0.270201    0.651200
 Energy
       -142.114652201087
 PlusStress:  xx          yy          zz          yz          xz          xy
         0.29002     0.07592     0.44099    -0.18298    -0.35762     0.14839
END_CFG

BEGIN_CFG
 Size
    2
 AtomData:  id type       cartes_x      cartes_y      cartes_z           fx          fy          fz
             1    0       0.879369     -1.826707      1.459465     1.775950    1.523529    6.295456
             2    1       0.656092     -2.018249      0.667984    -1.775950   -1.523529   -6.295456
 Energy
       -141.863966946146
 PlusStress:  xx          yy          zz          yz          xz          xy
         0.39653     0.29182     4.98273     1.20584     1.40563     0.34017
END_CFG

BEGIN_CFG
 Size
    2
 AtomData:  id type       cartes_x      cartes_y      cartes_z           fx          fy          fz
             1    0       0.635198     -2.003738      0.352333    -0.578456    0.689472    0.993587
             2    1       0.219466     -1.508219      1.066417     0.578456   -0.689472   -0.993587
 Energy
       -142.099724002543
 PlusStress:  xx          yy          zz          yz          xz          xy
        -0.24048    -0.34165    -0.70950    -0.49234     0.41307     0.28664
END_CFG

BEGIN_CFG
 Size
    2
 AtomData:  id type       cartes_x      cartes_y      cartes_z           fx          fy          fz
             1    0       0.860419     -2.049810     -0.380085    -0.000919   -0.000070   -0.007913
             2    1       0.967902     -2.041677      0.545852     0.000919    0.000070    0.007913
 Energy
       -142.121650568006
 PlusStress:  xx          yy          zz          yz          xz          xy
         0.00010     0.00000     0.00733     0.00006     0.00085     0.00001
END_CFG

BEGIN_CFG
 Size
    2
 AtomData:  id type       cartes_x      cartes_y      cartes_z           fx          fy          fz
             1    0       0.980361     -2.590884     -0.582982     0.503933   -0.603614   -0.311086
             2    1       1.547002     -3.269611     -0.932779    -0.503933    0.603614    0.311086
 Energy
       -142.113595467364
 PlusStress:  xx          yy          zz          yz          xz          xy
        -0.28555    -0.40969    -0.10882    -0.21114     0.17627     0.34203
END_CFG

BEGIN_CFG
 Size
    2
 AtomData:  id type       cartes_x      cartes_y      cartes_z           fx          fy          fz
             1    0       1.128719     -3.808006     -0.583660     3.126432   -2.038626    1.111914
             2    1       0.427391     -3.350697     -0.833087    -3.126432    2.038626   -1.111914
 Energy
       -142.017388690855
 PlusStress:  xx          yy          zz          yz          xz          xy
         2.19265     0.93228     0.27734    -0.50849     0.77982    -1.42975
END_CFG

BEGIN_CFG
 Size
    2
 AtomData:  id type       cartes_x      cartes_y      cartes_z           fx          fy          fz
             1    0       0.703395     -3.957362     -0.703419    -1.693680   -0.720225    0.375470
             2    1      -0.179621     -4.332858     -0.507664     1.693680    0.720225   -0.375470
 Energy
       -142.074138750816
 PlusStress:  xx          yy          zz          yz          xz          xy
        -1.49555    -0.27044    -0.07350     0.14099     0.33155    -0.63597
END_CFG

BEGIN_CFG
 Size
    2
 AtomData:  id type       cartes_x      cartes_y      cartes_z           fx          fy          fz
             1    0       0.936339     -2.994272     -0.611753     1.512915    0.791800   -2.524593
             2    1       1.445791     -2.727645     -1.461873    -1.512915   -0.791800    2.524593
 Energy
       -141.956140241034
 PlusStress:  xx          yy          zz          yz          xz          xy
        -0.77076    -0.21112    -2.14621     0.67312     1.28616    -0.40338
END_CFG

BEGIN_CFG
 Size
    2
 AtomData:  id type       cartes_x      cartes_y      cartes_z           fx          fy          fz
             1    0       0.956766     -3.546288     -0.391374     4.156414   -1.946352   -0.432767
             2    1       0.176409     -3.180865     -0.310123    -4.156414    1.946352    0.432767
 Energy
       -141.982913992545
 PlusStress:  xx          yy          zz          yz          xz          xy
         3.24349     0.71124     0.03516     0.15814    -0.33771    -1.51885
END_CFG

BEGIN_CFG
 Size
    2
 AtomData:  id type       cartes_x      cartes_y      cartes_z           fx          fy          fz
             1    0       1.256892     -3.934494     -0.125723     1.036795   -1.441286   -0.288765
             2    1       0.737379     -3.212300      0.018970    -1.036795    1.441286    0.288765
 Energy
       -142.095094463119
 PlusStress:  xx          yy          zz          yz          xz          xy
         0.53863     1.04089     0.04178     0.20854    -0.15002    -0.74877
END_CFG

BEGIN_CFG
 Size
    2
 AtomData:  id type       cartes_x      cartes_y      cartes_z           fx          fy          fz
             1    0       1.558962     -4.003930      0.080752    -1.723320   -1.856450    1.615318
             2    1       0.971509     -4.636765      0.631389     1.723320    1.856450   -1.615318
 Energy
       -141.962859881578
 PlusStress:  xx          yy          zz          yz          xz          xy
        -1.01237    -1.17483    -0.88945     1.02223     0.94892    -1.09058
END_CFG

