BEGIN_CFG
 Size
    5
 AtomData:  id type       cartes_x      cartes_y      cartes_z           fx          fy          fz
             1    0      -0.000000     -0.000009     -0.000010     0.000000    0.000013   -0.000091
             2    1      -0.000000      0.367524     -1.017850    -0.000000    0.000037   -0.000228
             3    1      -0.000000     -1.082151     -0.007248     0.000000   -0.000091    0.000032
             4    1       0.883595      0.357298      0.512510    -0.000028    0.000021    0.000144
             5    1      -0.883595      0.357298      0.512510     0.000028    0.000021    0.000144
 Energy
       -113.613517504853
 PlusStress:  xx          yy          zz          yz          xz          xy
        -0.00005     0.00013     0.00038    -0.00002    -0.00000    -0.00000
END_CFG

BEGIN_CFG
 Size
    5
 AtomData:  id type       cartes_x      cartes_y      cartes_z           fx          fy          fz
             1    0      -1.724530      0.409118      0.152253    -3.886826   -5.731839   -2.016019
             2    1      -1.244131      1.213760      0.477180     1.389380    2.747068    1.363878
             3    1      -1.273355     -0.051529     -0.763580     0.605726    0.019621    1.375646
             4    1      -2.093939     -0.403875      0.921762     1.891055    1.477986   -1.029284
             5    1      -2.720376      0.501494     -0.307116     0.000665    1.487164    0.305778
 Energy
       -112.923621431525
 PlusStress:  xx          yy          zz          yz          xz          xy
         0.24151     1.13715    -1.74921     1.32879     1.35158    -0.69843
END_CFG

BEGIN_CFG
 Size
    5
 AtomData:  id type       cartes_x      cartes_y      cartes_z           fx          fy          fz
             1    0      -1.326535      1.904060     -0.387195     0.522438   -4.370429    0.026158
             2    1      -1.073801      1.547131      0.689941    -0.564260    1.089370   -1.862413
             3    1      -0.825052      2.787017     -0.703922     0.105968    0.183070    0.013889
             4    1      -0.989166      0.929702     -1.054230    -0.280942    2.493634    1.362533
             5    1      -2.396825      1.871130     -0.582113     0.216795    0.604357    0.459832
 Energy
       -113.159928590089
 PlusStress:  xx          yy          zz          yz          xz          xy
        -0.41628    -2.67678    -3.00896    -0.66572    -0.49621     0.56156
END_CFG

BEGIN_CFG
 Size
    5
 AtomData:  id type       cartes_x      cartes_y      cartes_z           fx          fy          fz
             1    0      -1.450672      1.742005     -0.497139     0.186681    4.114134    0.655573
             2    1      -1.001029      0.848714     -0.424456     1.588076   -2.597932   -0.219822
             3    1      -0.811885      2.631361     -0.414509     1.084195   -0.598691    0.558331
             4    1      -1.857676      2.051680     -1.396969    -1.522720   -0.728464   -1.791482
             5    1      -2.086922      1.897578      0.322775    -1.336232   -0.189047    0.797401
 Energy
       -113.143218239652
 PlusStress:  xx          yy          zz          yz          xz          xy
         2.87657     1.53326     2.29599     0.26220     0.47961    -1.13381
END_CFG

BEGIN_CFG
 Size
    5
 AtomData:  id type       cartes_x      cartes_y      cartes_z           fx          fy          fz
             1    0      -1.947741      1.776656     -0.447599    -1.288311    0.711559   -0.376318
             2    1      -1.932641      1.792992      0.592805     0.409304    0.436477    1.898377
             3    1      -0.982329      2.016296     -0.832271     0.319172   -0.667630   -0.416943
             4    1      -2.454493      0.846698     -0.620727     0.532255   -0.453951   -1.011662
             5    1      -2.627008      2.569519     -0.760544     0.027578   -0.026455   -0.093455
 Energy
       -113.407197020003
 PlusStress:  xx          yy          zz          yz          xz          xy
         0.02586     0.24832     2.33986     0.79780     0.20229    -0.38994
END_CFG

BEGIN_CFG
 Size
    5
 AtomData:  id type       cartes_x      cartes_y      cartes_z           fx          fy          fz
             1    0      -0.796370      1.513875     -1.591092     3.647728    0.766351    1.062916
             2    1      -0.454307      0.741215     -2.299356    -0.422888    0.258924    0.709034
             3    1      -0.884079      1.164146     -0.519120    -0.506590    0.315276   -1.717634
             4    1       0.083746      2.290544     -1.540301    -1.058939   -1.478660   -0.002313
             5    1      -1.516507      2.129436     -2.028573    -1.659311    0.138110   -0.052002
 Energy
       -113.259310477426
 PlusStress:  xx          yy          zz          yz          xz          xy
         0.16272    -1.37374    -2.32081     0.01906     0.42860    -1.33993
END_CFG

BEGIN_CFG
 Size
    5
 AtomData:  id type       cartes_x      cartes_y      cartes_z           fx          fy          fz
             1    0      -1.266253      1.756576     -1.360209     0.387608   -2.746167   -3.372108
             2    1      -1.826209      0.766551     -1.316197     0.864366    1.393417    1.068557
             3    1      -1.531572      2.005017     -2.404969     0.010844    0.623262    0.404811
             4    1      -1.479822      2.540301     -0.727953    -0.699861    0.887480    1.325664
             5    1      -0.179443      1.588380     -1.448554    -0.562957   -0.157992    0.573077
 Energy
       -113.306617599143
 PlusStress:  xx          yy          zz          yz          xz          xy
        -0.94924    -0.50256     0.41163    -0.01476    -0.36604    -1.30686
END_CFG

BEGIN_CFG
 Size
    5
 AtomData:  id type       cartes_x      cartes_y      cartes_z           fx          fy          fz
             1    0      -1.071385      0.412672     -0.922035    -0.278448    2.273110   -1.972079
             2    1      -1.271316     -0.602917     -0.769317    -0.310041   -1.030437    0.404513
             3    1      -0.038352      0.558173     -1.207215     0.287630   -0.195160    0.208783
             4    1      -1.630288      0.765389     -1.883634     0.535838   -0.505523    1.972447
             5    1      -1.266203      1.064586     -0.056371    -0.234979   -0.541990   -0.613664
 Energy
       -113.437152263172
 PlusStress:  xx          yy          zz          yz          xz          xy
         0.10542     0.48647    -2.42569    -0.08478    -0.84805     0.39254
END_CFG

BEGIN_CFG
 Size
    5
 AtomData:  id type       cartes_x      cartes_y      cartes_z           fx          fy          fz
             1    0      -1.431294      1.897002     -1.655544    -4.851812    0.373091   -0.489758
             2    1      -1.395602      1.802682     -0.594868    -0.233442   -0.084644    0.335670
             3    1      -1.569983      2.922255     -1.988204    -0.146470   -0.006011    0.337531
             4    1      -0.634810      1.539701     -2.109088     4.032488   -1.553423   -1.669816
             5    1      -2.288444      1.263325     -2.165089     1.199236    1.270986    1.486373
 Energy
       -113.218298257344
 PlusStress:  xx          yy          zz          yz          xz          xy
         2.19587    -0.24853     0.24372    -0.03086    -2.63886    -2.32889
END_CFG

BEGIN_CFG
 Size
    5
 AtomData:  id type       cartes_x      cartes_y      cartes_z           fx          fy          fz
             1    0      -1.910236      1.609059     -1.075856    -1.011608   -3.537898    0.219126
             2    1      -1.395561      1.664037     -0.144389    -0.397351    0.955421    0.736258
             3    1      -2.511908      2.373728     -1.489218    -0.279526    0.740114    0.436824
             4    1      -1.116622      1.386572     -1.743413     0.429196   -0.284817   -0.996368
             5    1      -2.570337      0.614305     -0.974404     1.259289    2.127180   -0.395839
 Energy
       -113.266580900275
 PlusStress:  xx          yy          zz          yz          xz          xy
        -0.52697    -1.43418     1.13021     0.98995    -0.41333    -1.58376
END_CFG

BEGIN_CFG
 Size
    5
 AtomData:  id type       cartes_x      cartes_y      cartes_z           fx          fy          fz
             1    0      -2.080011      1.168339     -0.674974    -1.743516   -2.317599   -1.871312
             2    1      -3.210200      1.288357     -0.885302     1.816613    0.058418   -0.284791
             3    1      -1.664996      2.132301     -0.487477     0.385413   -0.002318    0.094452
             4    1      -2.145152      0.481262      0.179267     0.799848    0.518220   -0.179567
             5    1      -1.562967      0.563888     -1.595323    -1.258359    1.743279    2.241218
 Energy
       -113.197224944841
 PlusStress:  xx          yy          zz          yz          xz          xy
        -2.59589    -1.40501    -2.13849    -1.17446     1.53157     0.80061
END_CFG

BEGIN_CFG
 Size
    5
 AtomData:  id type       cartes_x      cartes_y      cartes_z           fx          fy          fz
             1    0      -2.236018      2.500013     -0.505094     1.354727   -0.621545    2.344150
             2    1      -2.039364      2.197251      0.592742     0.568305   -0.385420   -1.692883
             3    1      -2.275168      1.580896     -1.174878    -0.413305    1.941801    1.000398
             4    1      -3.011762      3.156239     -0.215857    -2.062853   -0.079950   -1.165837
             5    1      -1.494723      3.263611     -0.743567     0.553127   -0.854886   -0.485828
 Energy
       -112.986733615668
 PlusStress:  xx          yy          zz          yz          xz          xy
         2.13822    -2.37331    -2.74990    -1.54297     0.17217    -0.72352
END_CFG

BEGIN_CFG
 Size
    5
 AtomData:  id type       cartes_x      cartes_y      cartes_z           fx          fy          fz
             1    0      -2.093234      3.371679      0.692720    -1.601507    1.310765    0.277526
             2    1      -1.360026      4.080332      0.393866     0.117028    0.965449   -0.653908
             3    1      -2.241933      3.583545      1.732804     0.596994   -0.803655    0.897522
             4    1      -3.147600      3.629399      0.371755     1.548582   -0.694901   -0.750267
             5    1      -1.659096      2.443023      0.407274    -0.661097   -0.777658    0.229127
 Energy
       -113.293482280911
 PlusStress:  xx          yy          zz          yz          xz          xy
        -1.92275     1.05699     1.30433    -0.67938     0.27762     1.22245
END_CFG

BEGIN_CFG
 Size
    5
 AtomData:  id type       cartes_x      cartes_y      cartes_z           fx          fy          fz
             1    0      -2.365806      3.095026      1.012906     0.221651   -3.414863    0.518504
             2    1      -2.974188      2.831578      1.865386    -0.262108   -0.895754   -0.164225
             3    1      -2.885985      3.752707      0.479889    -2.086722    2.710958   -2.266919
             4    1      -1.565135      3.555235      1.440334     2.535178    1.145593    0.763465
             5    1      -2.047490      2.278383      0.317373    -0.408000    0.454065    1.149175
 Energy
       -113.256530670362
 PlusStress:  xx          yy          zz          yz          xz          xy
         3.14490     2.17533     0.59535    -2.03476     2.25620     0.19656
END_CFG

BEGIN_CFG
 Size
    5
 AtomData:  id type       cartes_x      cartes_y      cartes_z           fx          fy          fz
             1    0      -2.486775      3.083284      0.982149     0.955156    1.116763   -0.260170
             2    1      -2.946352      3.638864      1.818242     0.643102   -0.616596   -0.640143
             3    1      -1.948701      3.705980      0.270991    -0.388278    0.855658    0.179002
             4    1      -1.720018      2.379078      1.174556     0.500201   -0.685214    1.385401
             5    1      -3.164376      2.551455      0.401683    -1.710181   -0.670611   -0.664089
 Energy
       -113.364413771101
 PlusStress:  xx          yy          zz          yz          xz          xy
         1.03788     1.02943    -0.01048    -0.86661     1.90276     0.67279
END_CFG

BEGIN_CFG
 Size
    5
 AtomData:  id type       cartes_x      cartes_y      cartes_z           fx          fy          fz
             1    0      -1.354952      1.828860      1.911503     2.569009    2.035772   -0.642750
             2    1      -2.303632      1.963444      1.575986    -2.933595   -0.250513   -0.672282
             3    1      -1.109321      2.855582      2.303688     0.169345   -1.387982    0.388193
             4    1      -1.214566      0.983505      2.539975     0.131560   -0.014777    0.469933
             5    1      -0.751430      1.765455      0.992710     0.063680   -0.382500    0.456907
 Energy
       -113.353983244717
 PlusStress:  xx          yy          zz          yz          xz          xy
         2.88154    -1.42204     0.25334    -0.11814     1.07486    -0.33620
END_CFG

BEGIN_CFG
 Size
    5
 AtomData:  id type       cartes_x      cartes_y      cartes_z           fx          fy          fz
             1    0      -1.985953      2.205059      0.751147     2.198132   -1.487278   -2.566004
             2    1      -2.383691      1.453137      0.056395    -1.198501    0.517224    0.580740
             3    1      -1.459527      2.859463      0.028585    -0.303820    0.193500    0.876557
             4    1      -2.553773      2.702753      1.465588    -1.079956    0.421828    0.463022
             5    1      -1.229056      1.580924      1.208366     0.384145    0.354726    0.645684
 Energy
       -113.329889808240
 PlusStress:  xx          yy          zz          yz          xz          xy
         1.22073    -0.27374    -0.41082    -0.03560     0.45626    -0.07489
END_CFG

BEGIN_CFG
 Size
    5
 AtomData:  id type       cartes_x      cartes_y      cartes_z           fx          fy          fz
             1    0      -0.895493      2.570221      0.517062     0.996851   -1.249846   -3.924503
             2    1      -0.544419      1.979073      1.279826     0.376609   -1.438304    1.684920
             3    1      -1.321594      3.430499      0.878929    -1.250279    1.594583    0.498177
             4    1       0.021053      2.844800     -0.063895    -0.726481    0.002471    0.337629
             5    1      -1.522212      1.959819     -0.225433     0.603299    1.091096    1.403777
 Energy
       -113.368880210581
 PlusStress:  xx          yy          zz          yz          xz          xy
        -0.37899     1.55671     0.22702    -1.33163    -0.19106    -1.86595
END_CFG

BEGIN_CFG
 Size
    5
 AtomData:  id type       cartes_x      cartes_y      cartes_z           fx          fy          fz
             1    0      -0.925684      2.489003      0.863692     0.414207   -2.875569    2.229609
             2    1       0.075648      2.229869      1.383049    -1.865564   -0.226570   -0.114792
             3    1      -0.535529      3.187286      0.232213    -0.216167    2.433264   -1.542447
             4    1      -1.220036      1.610091      0.222613     0.128851    0.858587    1.009803
             5    1      -1.737720      2.751936      1.634355     1.538673   -0.189712   -1.582173
 Energy
       -113.163593348610
 PlusStress:  xx          yy          zz          yz          xz          xy
        -3.23977     0.95332    -0.95228    -2.35085     0.27081     0.62380
END_CFG

BEGIN_CFG
 Size
    5
 AtomData:  id type       cartes_x      cartes_y      cartes_z           fx          fy          fz
             1    0      -1.270365      2.199435      1.900101    -2.009828    0.310903   -3.164665
             2    1      -0.905749      1.640827      2.669225     0.899053   -0.554705    2.489112
             3    1      -1.733540      1.377171      1.272930     0.074191    1.103947    0.297982
             4    1      -2.072600      2.971417      2.116493     1.372968   -1.101750   -0.045942
             5    1      -0.456748      2.585373      1.278986    -0.336383    0.241604    0.423512
 Energy
       -113.337390615729
 PlusStress:  xx          yy          zz          yz          xz          xy
        -1.08168    -1.35516     1.45456    -1.50747     1.15098     0.36686
END_CFG

BEGIN_CFG
 Size
    5
 AtomData:  id type       cartes_x      cartes_y      cartes_z           fx          fy          fz
             1    0      -1.159231      2.099953      2.211603    -0.600867   -0.853517   -0.563641
             2    1      -0.230558      2.394311      2.619509     1.026662   -0.207653    0.148520
             3    1      -1.134488      1.968974      1.137985     0.316544    0.382128   -0.151110
             4    1      -1.492045      1.121263      2.566814     0.074499    0.517803    0.442746
             5    1      -1.822116      2.896239      2.456961    -0.816837    0.161239    0.123484
 Energy
       -113.531167444174
 PlusStress:  xx          yy          zz          yz          xz          xy
         1.47794    -0.48955     0.41038    -0.27147    -0.09502    -0.46260
END_CFG

