BEGIN_CFG
 Size
    2
 AtomData:  id type       cartes_x      cartes_y      cartes_z           fx          fy          fz
             1    0       0.047618     -0.000000     -0.000000    -0.003475    0.000000    0.000000
             2    1      -0.884804      0.000000      0.000000     0.003475    0.000000    0.000000
 Energy
       -142.121646793694
 PlusStress:  xx          yy          zz          yz          xz          xy
        -0.00324     0.00000     0.00000     0.00000     0.00000     0.00000
END_CFG

BEGIN_CFG
 Size
    2
 AtomData:  id type       cartes_x      cartes_y      cartes_z           fx          fy          fz
             1    0      -0.705528     -0.735631      0.663813    -0.598845    0.333335   -0.873223
             2    1      -1.222016     -0.448138     -0.089319     0.598845   -0.333335    0.873223
 Energy
       -142.107176521146
 PlusStress:  xx          yy          zz          yz          xz          xy
        -0.30930    -0.09583    -0.65765     0.25105    -0.45101     0.17216
END_CFG

BEGIN_CFG
 Size
    2
 AtomData:  id type       cartes_x      cartes_y      cartes_z           fx          fy          fz
             1    0       0.452216     -0.396591      0.045269     2.399988    0.173880   -2.422153
             2    1       1.188305     -0.343261     -0.697618    -2.399988   -0.173880    2.422153
 Energy
       -141.888651445745
 PlusStress:  xx          yy          zz          yz          xz          xy
        -1.76660    -0.00927    -1.79939     0.12917     1.78292    -0.12799
END_CFG

BEGIN_CFG
 Size
    2
 AtomData:  id type       cartes_x      cartes_y      cartes_z           fx          fy          fz
             1    0       0.736369     -0.685311      0.154520     1.888363   -0.996140   -0.476062
             2    1       1.590754     -1.136012     -0.060873    -1.888363    0.996140    0.476062
 Energy
       -142.052985747816
 PlusStress:  xx          yy          zz          yz          xz          xy
        -1.61339    -0.44896    -0.10254    -0.21456     0.40674     0.85109
END_CFG

BEGIN_CFG
 Size
    2
 AtomData:  id type       cartes_x      cartes_y      cartes_z           fx          fy          fz
             1    0       1.340989     -1.151297      0.723919     0.340229    0.780753    0.421643
             2    1       1.013459     -1.902908      0.318014    -0.340229   -0.780753   -0.421643
 Energy
       -142.113560115035
 PlusStress:  xx          yy          zz          yz          xz          xy
         0.11144     0.58682     0.17115     0.31691     0.13810     0.25572
END_CFG

BEGIN_CFG
 Size
    2
 AtomData:  id type       cartes_x      cartes_y      cartes_z           fx          fy          fz
             1    0       1.478810     -1.771776      0.668846    -1.538318    0.008810   -0.129158
             2    1       0.513058     -1.766245      0.587761     1.538318   -0.008810    0.129158
 Energy
       -142.091517827186
 PlusStress:  xx          yy          zz          yz          xz          xy
        -1.48563    -0.00005    -0.01047     0.00071    -0.12473     0.00851
END_CFG

BEGIN_CFG
 Size
    2
 AtomData:  id type       cartes_x      cartes_y      cartes_z           fx          fy          fz
             1    0       2.381766     -2.430399     -0.010757    -0.098796    0.705789   -1.004480
             2    1       2.304713     -1.879940     -0.794171     0.098796   -0.705789    1.004480
 Energy
       -142.103476196566
 PlusStress:  xx          yy          zz          yz          xz          xy
        -0.00761    -0.38851    -0.78692     0.55292    -0.07740     0.05438
END_CFG

BEGIN_CFG
 Size
    2
 AtomData:  id type       cartes_x      cartes_y      cartes_z           fx          fy          fz
             1    0       2.665253     -1.459371      0.864583     0.368057   -0.424290    0.129149
             2    1       3.268481     -2.154761      1.076252    -0.368057    0.424290   -0.129149
 Energy
       -142.118050050642
 PlusStress:  xx          yy          zz          yz          xz          xy
        -0.22202    -0.29505    -0.02734     0.08981    -0.07791     0.25594
END_CFG

BEGIN_CFG
 Size
    2
 AtomData:  id type       cartes_x      cartes_y      cartes_z           fx          fy          fz
             1    0       2.714228     -1.570115      0.671301    -0.298634   -1.117756   -0.321641
             2    1       2.475549     -2.463465      0.414234     0.298634    1.117756    0.321641
 Energy
       -142.104460715410
 PlusStress:  xx          yy          zz          yz          xz          xy
        -0.07128    -0.99855    -0.08268    -0.28734    -0.07677    -0.26678
END_CFG

BEGIN_CFG
 Size
    2
 AtomData:  id type       cartes_x      cartes_y      cartes_z           fx          fy          fz
             1    0       2.145116     -1.206788      1.531789    -0.978107    2.076581   -2.380621
             2    1       1.837336     -0.553352      0.782681     0.978107   -2.076581    2.380621
 Energy
       -141.910678933863
 PlusStress:  xx          yy          zz          yz          xz          xy
        -0.30104    -1.35691    -1.78334     1.55558    -0.73271     0.63913
END_CFG

BEGIN_CFG
 Size
    2
 AtomData:  id type       cartes_x      cartes_y      cartes_z           fx          fy          fz
             1    0       2.251108     -1.407324      1.505717     0.528027    0.270166   -0.651113
             2    1       1.701935     -1.688309      2.182906    -0.528027   -0.270166    0.651113
 Energy
       -142.114647472512
 PlusStress:  xx          yy          zz          yz          xz          xy
         0.28998     0.07591     0.44093    -0.18295    -0.35757     0.14837
END_CFG

BEGIN_CFG
 Size
    2
 AtomData:  id type       cartes_x      cartes_y      cartes_z           fx          fy          fz
             1    0       0.879369     -1.826707      1.459465     1.776180    1.523727    6.296273
             2    1       0.656092     -2.018249      0.667984    -1.776180   -1.523727   -6.296273
 Energy
       -141.863985949884
 PlusStress:  xx          yy          zz          yz          xz          xy
         0.39658     0.29186     4.98338     1.20600     1.40581     0.34021
END_CFG

BEGIN_CFG
 Size
    2
 AtomData:  id type       cartes_x      cartes_y      cartes_z           fx          fy          fz
             1    0       0.635198     -2.003738      0.352333    -0.578372    0.689373    0.993443
             2    1       0.219466     -1.508219      1.066417     0.578372   -0.689373   -0.993443
 Energy
       -142.099726849617
 PlusStress:  xx          yy          zz          yz          xz          xy
        -0.24045    -0.34160    -0.70940    -0.49227     0.41301     0.28659
END_CFG

BEGIN_CFG
 Size
    2
 AtomData:  id type       cartes_x      cartes_y      cartes_z           fx          fy          fz
             1    0       0.860419     -2.049810     -0.380085    -0.000936   -0.000071   -0.008060
             2    1       0.967902     -2.041677      0.545852     0.000936    0.000071    0.008060
 Energy
       -142.121646255824
 PlusStress:  xx          yy          zz          yz          xz          xy
         0.00010     0.00000     0.00746     0.00007     0.00087     0.00001
END_CFG

BEGIN_CFG
 Size
    2
 AtomData:  id type       cartes_x      cartes_y      cartes_z           fx          fy          fz
             1    0       0.980361     -2.590884     -0.582982     0.503778   -0.603429   -0.310991
             2    1       1.547002     -3.269611     -0.932779    -0.503778    0.603429    0.310991
 Energy
       -142.113595338752
 PlusStress:  xx          yy          zz          yz          xz          xy
        -0.28546    -0.40956    -0.10878    -0.21108     0.17622     0.34193
END_CFG

BEGIN_CFG
 Size
    2
 AtomData:  id type       cartes_x      cartes_y      cartes_z           fx          fy          fz
             1    0       1.128719     -3.808006     -0.583660     3.125918   -2.038291    1.111731
             2    1       0.427391     -3.350697     -0.833087    -3.125918    2.038291   -1.111731
 Energy
       -142.017404349200
 PlusStress:  xx          yy          zz          yz          xz          xy
         2.19229     0.93213     0.27730    -0.50840     0.77969    -1.42951
END_CFG

BEGIN_CFG
 Size
    2
 AtomData:  id type       cartes_x      cartes_y      cartes_z           fx          fy          fz
             1    0       0.703395     -3.957362     -0.703419    -1.693698   -0.720233    0.375474
             2    1      -0.179621     -4.332858     -0.507664     1.693698    0.720233   -0.375474
 Energy
       -142.074143127322
 PlusStress:  xx          yy          zz          yz          xz          xy
        -1.49556    -0.27044    -0.07350     0.14099     0.33155    -0.63598
END_CFG

BEGIN_CFG
 Size
    2
 AtomData:  id type       cartes_x      cartes_y      cartes_z           fx          fy          fz
             1    0       0.936339     -2.994272     -0.611753     1.513136    0.791915   -2.524963
             2    1       1.445791     -2.727645     -1.461873    -1.513136   -0.791915    2.524963
 Energy
       -141.956127813355
 PlusStress:  xx          yy          zz          yz          xz          xy
        -0.77087    -0.21115    -2.14652     0.67322     1.28635    -0.40344
END_CFG

BEGIN_CFG
 Size
    2
 AtomData:  id type       cartes_x      cartes_y      cartes_z           fx          fy          fz
             1    0       0.956766     -3.546288     -0.391374     4.155981   -1.946149   -0.432722
             2    1       0.176409     -3.180865     -0.310123    -4.155981    1.946149    0.432722
 Energy
       -141.982934297785
 PlusStress:  xx          yy          zz          yz          xz          xy
         3.24315     0.71117     0.03516     0.15813    -0.33768    -1.51869
END_CFG

BEGIN_CFG
 Size
    2
 AtomData:  id type       cartes_x      cartes_y      cartes_z           fx          fy          fz
             1    0       1.256892     -3.934494     -0.125723     1.036557   -1.440955   -0.288698
             2    1       0.737379     -3.212300      0.018970    -1.036557    1.440955    0.288698
 Energy
       -142.095093635053
 PlusStress:  xx          yy          zz          yz          xz          xy
         0.53850     1.04065     0.04177     0.20850    -0.14998    -0.74860
END_CFG

BEGIN_CFG
 Size
    2
 AtomData:  id type       cartes_x      cartes_y      cartes_z           fx          fy          fz
             1    0       1.558962     -4.003930      0.080752    -1.723593   -1.856745    1.615575
             2    1       0.971509     -4.636765      0.631389     1.723593    1.856745   -1.615575
 Energy
       -141.962848480871
 PlusStress:  xx          yy          zz          yz          xz          xy
        -1.01253    -1.17501    -0.88960     1.02239     0.94907    -1.09075
END_CFG

