BEGIN_CFG
 Size
    3
 AtomData:  id type       cartes_x      cartes_y      cartes_z           fx          fy          fz
             1    0      -0.000001     -0.409818      0.000000    -0.000014    0.609800    0.000000
             2    0      -1.072560      0.204912     -0.000000    -0.027083   -0.304904    0.000000
             3    0       1.072561      0.204906     -0.000000     0.027097   -0.304896    0.000000
 Energy
       -324.559586801616
 PlusStress:  xx          yy          zz          yz          xz          xy
         0.05811    -0.37486     0.00000     0.00000     0.00000     0.00001
END_CFG

BEGIN_CFG
 Size
    3
 AtomData:  id type       cartes_x      cartes_y      cartes_z           fx          fy          fz
             1    0       0.296441      0.473681      0.080715    -2.442036   -3.150101   -1.557583
             2    0      -0.125147      0.843848     -0.992927    -1.648311   -0.293338   -2.665140
             3    0       0.976676      1.225736      0.625006     4.090347    3.443439    4.222723
 Energy
       -324.163042383364
 PlusStress:  xx          yy          zz          yz          xz          xy
         3.47731     2.48107     5.15980     2.18917     3.99603     2.46602
END_CFG

BEGIN_CFG
 Size
    3
 AtomData:  id type       cartes_x      cartes_y      cartes_z           fx          fy          fz
             1    0       0.313562      0.936607     -0.364877    -1.525034   -1.526139   -0.215612
             2    0      -0.530454     -0.012698     -0.368616    -0.156683    0.686218   -0.953045
             3    0       1.035178      0.864170      0.614551     1.681717    0.839921    1.168656
 Energy
       -324.389901536373
 PlusStress:  xx          yy          zz          yz          xz          xy
         1.34580    -0.71227     1.14818     0.82008     1.64771     0.02692
END_CFG

BEGIN_CFG
 Size
    3
 AtomData:  id type       cartes_x      cartes_y      cartes_z           fx          fy          fz
             1    0       0.426403      0.658976     -0.680193    -0.340753    1.269256    2.739763
             2    0      -0.694937      0.276329     -1.055208     0.833512    0.287133    0.284326
             3    0       0.612583      1.253184      0.475081    -0.492759   -1.556389   -3.024089
 Energy
       -324.403819764390
 PlusStress:  xx          yy          zz          yz          xz          xy
        -1.02639    -1.03469    -3.60028    -1.90573    -0.88185    -0.61174
END_CFG

BEGIN_CFG
 Size
    3
 AtomData:  id type       cartes_x      cartes_y      cartes_z           fx          fy          fz
             1    0       0.036670      1.103366     -0.938708     1.259507    0.348405    2.284068
             2    0      -1.037636      0.823263     -1.399960    -1.450163   -0.382673   -1.020924
             3    0       0.186018      1.155976      0.316142     0.190657    0.034268   -1.263145
 Energy
       -324.508210832880
 PlusStress:  xx          yy          zz          yz          xz          xy
         1.58639     0.10899    -1.11415     0.21951     0.90814     0.41623
END_CFG

BEGIN_CFG
 Size
    3
 AtomData:  id type       cartes_x      cartes_y      cartes_z           fx          fy          fz
             1    0       0.027396      2.034492     -1.023639     2.462182   -2.730885    5.465161
             2    0      -0.762376      2.232268     -1.844995    -2.820301    0.724719   -2.958441
             3    0      -0.109861      1.224885     -0.006972     0.358119    2.006165   -2.506720
 Energy
       -324.301642135657
 PlusStress:  xx          yy          zz          yz          xz          xy
         2.17824    -1.48087    -0.11857     1.44435     2.68056    -0.84772
END_CFG

BEGIN_CFG
 Size
    3
 AtomData:  id type       cartes_x      cartes_y      cartes_z           fx          fy          fz
             1    0      -0.550876      2.690525     -0.762151     2.259758   -0.656044    0.406120
             2    0       0.135994      2.912316     -1.791029    -0.909412    0.393424   -0.517470
             3    0       0.216670      2.191761      0.130689    -1.350346    0.262620    0.111349
 Energy
       -324.360892917125
 PlusStress:  xx          yy          zz          yz          xz          xy
        -1.66110    -0.04373     0.63183    -0.17031    -0.26997     0.47180
END_CFG

BEGIN_CFG
 Size
    3
 AtomData:  id type       cartes_x      cartes_y      cartes_z           fx          fy          fz
             1    0      -0.569946      3.146818     -0.440408     1.156851    3.728149   -2.913481
             2    0       0.026926      3.737192     -1.447633    -1.421497   -0.978722    2.239816
             3    0      -0.365984      1.991557     -0.279748     0.264646   -2.749427    0.673665
 Energy
       -324.355412367911
 PlusStress:  xx          yy          zz          yz          xz          xy
        -0.79447     2.59849    -2.14777     0.54407     1.47429    -1.14495
END_CFG

BEGIN_CFG
 Size
    3
 AtomData:  id type       cartes_x      cartes_y      cartes_z           fx          fy          fz
             1    0      -0.225386      2.980188     -0.570369     0.800319    1.512983   -1.117372
             2    0       0.603251      3.446725     -1.384763    -0.481576    0.377261    0.271399
             3    0      -0.137588      1.815217     -0.278514    -0.318743   -1.890244    0.845973
 Energy
       -324.505102417237
 PlusStress:  xx          yy          zz          yz          xz          xy
        -0.42704     2.37809     0.02588    -0.85892     0.29917     0.14665
END_CFG

BEGIN_CFG
 Size
    3
 AtomData:  id type       cartes_x      cartes_y      cartes_z           fx          fy          fz
             1    0      -0.758600      3.487048     -0.542667    -1.125023   -1.621106    0.543742
             2    0       0.118978      4.128993     -1.048519     0.971839    0.703242   -0.561190
             3    0      -0.956002      2.260383     -0.570906     0.153184    0.917864    0.017448
 Energy
       -324.556325297029
 PlusStress:  xx          yy          zz          yz          xz          xy
         0.82263    -0.67447     0.28339    -0.38166    -0.49593     0.43596
END_CFG

BEGIN_CFG
 Size
    3
 AtomData:  id type       cartes_x      cartes_y      cartes_z           fx          fy          fz
             1    0      -0.648745      2.936533     -0.273820    -0.105682    5.149044   -4.131944
             2    0      -1.210334      3.352671     -1.393970     1.352672    0.397684    1.615432
             3    0      -1.027257      1.883381      0.002480    -1.246990   -5.546728    2.516512
 Energy
       -324.076354047461
 PlusStress:  xx          yy          zz          yz          xz          xy
        -0.28765     6.00704    -1.11421    -1.97803    -1.85974     1.87617
END_CFG

BEGIN_CFG
 Size
    3
 AtomData:  id type       cartes_x      cartes_y      cartes_z           fx          fy          fz
             1    0      -1.031929      2.462962     -0.571308     0.714169    0.093866   -0.721790
             2    0      -0.813191      3.658781     -0.614248     0.513440    1.105267   -0.360520
             3    0      -1.834888      1.981834      0.182892    -1.227609   -1.199133    1.082310
 Energy
       -324.534458159428
 PlusStress:  xx          yy          zz          yz          xz          xy
         1.09803     1.89864     0.83176    -0.95185    -0.94791     1.20462
END_CFG

BEGIN_CFG
 Size
    3
 AtomData:  id type       cartes_x      cartes_y      cartes_z           fx          fy          fz
             1    0      -0.466552      2.683762      0.736332     1.024945    1.616256   -1.395318
             2    0      -0.206753      3.528922     -0.169900    -0.212756   -1.078924    1.232925
             3    0      -1.527975      2.105268      0.791567    -0.812189   -0.537332    0.162393
 Energy
       -324.529668007799
 PlusStress:  xx          yy          zz          yz          xz          xy
         0.80680    -0.60102    -1.10835     0.94808     0.14795     0.29003
END_CFG

BEGIN_CFG
 Size
    3
 AtomData:  id type       cartes_x      cartes_y      cartes_z           fx          fy          fz
             1    0      -0.626678      2.496187      1.113308    -0.198364    3.150369   -0.648186
             2    0      -0.112222      3.303811      0.220239    -1.227936   -2.046551    2.165713
             3    0      -1.409150      3.058872      1.958120     1.426299   -1.103818   -1.517527
 Energy
       -324.346309150903
 PlusStress:  xx          yy          zz          yz          xz          xy
        -1.74776    -2.27395    -3.21616     0.89519     2.30159    -0.18915
END_CFG

BEGIN_CFG
 Size
    3
 AtomData:  id type       cartes_x      cartes_y      cartes_z           fx          fy          fz
             1    0      -1.530954      2.821997      0.556998    -0.135906    1.206030    2.929552
             2    0      -1.661328      3.862942     -0.111575     0.087732   -0.706015    0.283931
             3    0      -1.543795      2.970257      1.862755     0.048173   -0.500014   -3.213483
 Energy
       -324.393496065404
 PlusStress:  xx          yy          zz          yz          xz          xy
        -0.01206    -0.80906    -4.38586    -0.18087     0.00425     0.09847
END_CFG

BEGIN_CFG
 Size
    3
 AtomData:  id type       cartes_x      cartes_y      cartes_z           fx          fy          fz
             1    0      -1.272849      2.837690      0.128301    -0.272221    1.415674   -2.380236
             2    0      -1.814463      3.912207     -0.172499     0.021231    0.254583   -0.743529
             3    0      -1.313543      2.468238      1.251743     0.250991   -1.670257    3.123765
 Energy
       -324.461969331623
 PlusStress:  xx          yy          zz          yz          xz          xy
        -0.02171     0.89063     3.73302    -1.95302     0.27559    -0.06992
END_CFG

BEGIN_CFG
 Size
    3
 AtomData:  id type       cartes_x      cartes_y      cartes_z           fx          fy          fz
             1    0      -0.793206      2.411508      0.578418     0.990243   -4.692353    4.056953
             2    0      -1.208001      3.093758     -0.239380    -1.746942    4.236411   -4.380606
             3    0      -1.370216      1.316653      0.844914     0.756698    0.455943    0.323653
 Energy
       -324.277589855130
 PlusStress:  xx          yy          zz          yz          xz          xy
         0.28800     2.39110     3.66870    -3.34302     1.63030    -2.02033
END_CFG

BEGIN_CFG
 Size
    3
 AtomData:  id type       cartes_x      cartes_y      cartes_z           fx          fy          fz
             1    0      -0.619516      2.597085      1.280989     0.037553    0.302752   -0.108196
             2    0      -0.444276      3.767255      0.943246     0.180508    0.351055    0.240665
             3    0      -1.117331      1.791028      0.505586    -0.218060   -0.653807   -0.132469
 Energy
       -324.558474794622
 PlusStress:  xx          yy          zz          yz          xz          xy
         0.14019     0.93780     0.02143     0.38840     0.10812     0.38699
END_CFG

BEGIN_CFG
 Size
    3
 AtomData:  id type       cartes_x      cartes_y      cartes_z           fx          fy          fz
             1    0      -0.308262      4.062445      0.956809     0.053857    1.682048    1.017410
             2    0      -0.946340      5.070332      1.320431     0.547476    0.569580    0.538744
             3    0      -0.921450      3.288430      0.272696    -0.601333   -2.251627   -1.556153
 Energy
       -324.453283558283
 PlusStress:  xx          yy          zz          yz          xz          xy
         0.01940     2.31687     1.26048     1.74748     0.61045     1.01723
END_CFG

BEGIN_CFG
 Size
    3
 AtomData:  id type       cartes_x      cartes_y      cartes_z           fx          fy          fz
             1    0      -0.445297      3.784581      0.903909    -2.329241    2.905511    2.578013
             2    0      -1.050338      4.720568      1.714042     2.095106   -2.806641   -2.468594
             3    0      -1.276238      3.012784      0.422164     0.234135   -0.098870   -0.109419
 Energy
       -324.131770120034
 PlusStress:  xx          yy          zz          yz          xz          xy
        -1.46218    -2.55067    -1.94718    -2.22612     1.58452     1.78029
END_CFG

BEGIN_CFG
 Size
    3
 AtomData:  id type       cartes_x      cartes_y      cartes_z           fx          fy          fz
             1    0      -1.710566      4.123183      0.675482     0.944841   -1.482232    0.502016
             2    0      -0.917973      5.058984      0.771191    -0.020827    0.987220   -0.153606
             3    0      -1.225363      2.995349      0.988035    -0.924014    0.495012   -0.348410
 Energy
       -324.480131283403
 PlusStress:  xx          yy          zz          yz          xz          xy
        -0.46484     0.36555    -0.12360     0.24920    -0.29080     1.02264
END_CFG

