BEGIN_CFG
 Size
    2
 AtomData:  id type       cartes_x      cartes_y      cartes_z           fx          fy          fz
             1    0       0.388362     -0.000000     -0.000000    -0.001742    0.000000    0.000000
             2    0      -0.388362      0.000000      0.000000     0.001742    0.000000    0.000000
 Energy
        -26.740263469349
 PlusStress:  xx          yy          zz          yz          xz          xy
        -0.00135     0.00000     0.00000     0.00000     0.00000     0.00000
END_CFG

BEGIN_CFG
 Size
    2
 AtomData:  id type       cartes_x      cartes_y      cartes_z           fx          fy          fz
             1    0       1.474026      5.312450     -1.627169    -0.179221   -0.420984    0.376810
             2    0       1.702476      5.849071     -2.107483     0.179221    0.420984   -0.376810
 Energy
        -26.734159746297
 PlusStress:  xx          yy          zz          yz          xz          xy
         0.04094     0.22591     0.18099    -0.20220    -0.08608     0.09617
END_CFG

BEGIN_CFG
 Size
    2
 AtomData:  id type       cartes_x      cartes_y      cartes_z           fx          fy          fz
             1    0      -1.760653      6.091512     -3.725743     0.045819   -0.152497   -0.223229
             2    0      -1.888737      6.517806     -3.101722    -0.045819    0.152497    0.223229
 Energy
        -26.738888154643
 PlusStress:  xx          yy          zz          yz          xz          xy
         0.00587     0.06501     0.13930     0.09516    -0.02859    -0.01953
END_CFG

BEGIN_CFG
 Size
    2
 AtomData:  id type       cartes_x      cartes_y      cartes_z           fx          fy          fz
             1    0       1.264859      6.447399      2.918265    -0.028248    0.496556    0.366043
             2    0       1.299383      5.840529      2.470903     0.028248   -0.496556   -0.366043
 Energy
        -26.733664045781
 PlusStress:  xx          yy          zz          yz          xz          xy
         0.00098     0.30135     0.16375     0.22214    -0.01264    -0.01714
END_CFG

BEGIN_CFG
 Size
    2
 AtomData:  id type       cartes_x      cartes_y      cartes_z           fx          fy          fz
             1    0      -1.462122      3.229215      4.975702     0.444903    0.530547   -0.912836
             2    0      -1.140522      3.612723      4.315855    -0.444903   -0.530547    0.912836
 Energy
        -26.709176060987
 PlusStress:  xx          yy          zz          yz          xz          xy
        -0.14308    -0.20347    -0.60233     0.35008     0.29357    -0.17062
END_CFG

BEGIN_CFG
 Size
    2
 AtomData:  id type       cartes_x      cartes_y      cartes_z           fx          fy          fz
             1    0       2.081150      4.042686      1.058001     1.446038    0.641041   -1.441687
             2    0       1.600221      3.829486      1.537483    -1.446038   -0.641041    1.441687
 Energy
        -26.676103408508
 PlusStress:  xx          yy          zz          yz          xz          xy
         0.69544     0.13667     0.69126    -0.30737    -0.69335     0.30830
END_CFG

BEGIN_CFG
 Size
    2
 AtomData:  id type       cartes_x      cartes_y      cartes_z           fx          fy          fz
             1    0       3.118380      4.391437      1.462239    -2.740213   -0.952344   -0.088816
             2    0       2.217696      4.078410      1.433046     2.740213    0.952344    0.088816
 Energy
        -26.442291370646
 PlusStress:  xx          yy          zz          yz          xz          xy
        -2.46807    -0.29811    -0.00259    -0.02780    -0.08000    -0.85776
END_CFG

BEGIN_CFG
 Size
    2
 AtomData:  id type       cartes_x      cartes_y      cartes_z           fx          fy          fz
             1    0      -1.472790      7.033115      4.004277    -1.907494   -2.220693   -0.734018
             2    0      -1.035556      7.542140      4.172528     1.907494    2.220693    0.734018
 Energy
        -26.624733310864
 PlusStress:  xx          yy          zz          yz          xz          xy
         0.83402     1.13039     0.12350     0.37363     0.32094     0.97096
END_CFG

BEGIN_CFG
 Size
    2
 AtomData:  id type       cartes_x      cartes_y      cartes_z           fx          fy          fz
             1    0      -0.225471      4.300783      4.341409     0.195566    0.004734   -0.291110
             2    0       0.215441      4.311456      3.685091    -0.195566   -0.004734    0.291110
 Energy
        -26.737755389035
 PlusStress:  xx          yy          zz          yz          xz          xy
        -0.08623    -0.00005    -0.19106     0.00311     0.12835    -0.00209
END_CFG

BEGIN_CFG
 Size
    2
 AtomData:  id type       cartes_x      cartes_y      cartes_z           fx          fy          fz
             1    0       0.697762      4.552799      2.854951    -0.165156    1.136437    0.550700
             2    0       0.589475      5.297921      3.216026     0.165156   -1.136437   -0.550700
 Energy
        -26.700878610003
 PlusStress:  xx          yy          zz          yz          xz          xy
        -0.01788    -0.84678    -0.19884    -0.41034     0.05963     0.12306
END_CFG

BEGIN_CFG
 Size
    2
 AtomData:  id type       cartes_x      cartes_y      cartes_z           fx          fy          fz
             1    0       0.247806      5.515333      2.436494     1.122017   -0.797089    0.577794
             2    0      -0.299788      5.904348      2.154505    -1.122017    0.797089   -0.577794
 Energy
        -26.706342143711
 PlusStress:  xx          yy          zz          yz          xz          xy
         0.61441     0.31008     0.16293    -0.22477     0.31640    -0.43648
END_CFG

BEGIN_CFG
 Size
    2
 AtomData:  id type       cartes_x      cartes_y      cartes_z           fx          fy          fz
             1    0      -1.040148      7.785676      2.572052     0.553591    0.344782    0.047952
             2    0      -0.359486      8.209599      2.631011    -0.553591   -0.344782   -0.047952
 Energy
        -26.731044101709
 PlusStress:  xx          yy          zz          yz          xz          xy
        -0.37681    -0.14616    -0.00283    -0.02033    -0.03264    -0.23468
END_CFG

BEGIN_CFG
 Size
    2
 AtomData:  id type       cartes_x      cartes_y      cartes_z           fx          fy          fz
             1    0       0.681354      7.588105      5.565223    -1.440617   -0.854599    2.055850
             2    0       0.176416      7.288567      6.285801     1.440617    0.854599   -2.055850
 Energy
        -26.510442303462
 PlusStress:  xx          yy          zz          yz          xz          xy
        -0.72742    -0.25598    -1.48140     0.61581     1.03808    -0.43152
END_CFG

BEGIN_CFG
 Size
    2
 AtomData:  id type       cartes_x      cartes_y      cartes_z           fx          fy          fz
             1    0       2.088060      8.304691      7.730366    -0.411856    0.798782   -2.377864
             2    0       1.939007      8.593775      6.869803     0.411856   -0.798782    2.377864
 Energy
        -26.535108999056
 PlusStress:  xx          yy          zz          yz          xz          xy
        -0.06139    -0.23092    -2.04630     0.68740    -0.35443     0.11906
END_CFG

BEGIN_CFG
 Size
    2
 AtomData:  id type       cartes_x      cartes_y      cartes_z           fx          fy          fz
             1    0       3.320472      9.891695      3.694510     0.574148    0.084306    0.496658
             2    0       3.928693      9.981004      4.220643    -0.574148   -0.084306   -0.496658
 Energy
        -26.727423019029
 PlusStress:  xx          yy          zz          yz          xz          xy
        -0.34921    -0.00753    -0.26131    -0.04436    -0.30208    -0.05128
END_CFG

BEGIN_CFG
 Size
    2
 AtomData:  id type       cartes_x      cartes_y      cartes_z           fx          fy          fz
             1    0       3.160252     11.633037      9.749455     0.036434   -0.026530    0.000500
             2    0       3.789464     11.174871      9.758096    -0.036434    0.026530   -0.000500
 Energy
        -26.740224292195
 PlusStress:  xx          yy          zz          yz          xz          xy
        -0.02292    -0.01216    -0.00000     0.00023    -0.00031     0.01669
END_CFG

BEGIN_CFG
 Size
    2
 AtomData:  id type       cartes_x      cartes_y      cartes_z           fx          fy          fz
             1    0       1.828040     10.106676     12.877009     0.030957    0.047858    0.114402
             2    0       1.641099      9.817674     12.186165    -0.030957   -0.047858   -0.114402
 Energy
        -26.739957251188
 PlusStress:  xx          yy          zz          yz          xz          xy
         0.00579     0.01383     0.07903     0.03306     0.02139     0.00895
END_CFG

BEGIN_CFG
 Size
    2
 AtomData:  id type       cartes_x      cartes_y      cartes_z           fx          fy          fz
             1    0      -0.199036     11.365494     14.121974    -0.100507    0.162405    0.482185
             2    0      -0.052137     11.128125     13.417221     0.100507   -0.162405   -0.482185
 Energy
        -26.735535170058
 PlusStress:  xx          yy          zz          yz          xz          xy
         0.01476     0.03855     0.33982     0.11446    -0.07083    -0.02386
END_CFG

BEGIN_CFG
 Size
    2
 AtomData:  id type       cartes_x      cartes_y      cartes_z           fx          fy          fz
             1    0      -3.638841     10.538988     16.052024    -0.385864    0.026448    0.547719
             2    0      -4.101987     10.570733     16.709442     0.385864   -0.026448   -0.547719
 Energy
        -26.730540792316
 PlusStress:  xx          yy          zz          yz          xz          xy
        -0.17871    -0.00084    -0.36008    -0.01739     0.25367     0.01225
END_CFG

BEGIN_CFG
 Size
    2
 AtomData:  id type       cartes_x      cartes_y      cartes_z           fx          fy          fz
             1    0      -3.799826     13.374588     19.627285    -0.579240   -1.055853   -1.427427
             2    0      -4.069813     12.882449     18.961953     0.579240    1.055853    1.427427
 Energy
        -26.644901612747
 PlusStress:  xx          yy          zz          yz          xz          xy
        -0.15639    -0.51963    -0.94971    -0.70249    -0.38539    -0.28507
END_CFG

BEGIN_CFG
 Size
    2
 AtomData:  id type       cartes_x      cartes_y      cartes_z           fx          fy          fz
             1    0      -4.404139     16.212205     19.989760    -0.464615   -0.297356   -2.774954
             2    0      -4.289862     16.285343     20.672290     0.464615    0.297356    2.774954
 Energy
        -26.636671597654
 PlusStress:  xx          yy          zz          yz          xz          xy
         0.05309     0.02175     1.89399     0.20295     0.31711     0.03398
END_CFG

