BEGIN_CFG
 Size
    4
 Supercell
         3.610000      0.000000      0.000000
         0.000000      3.610000      0.000000
         0.000000      0.000000      3.610000
 AtomData:  id type       cartes_x      cartes_y      cartes_z           fx          fy          fz
             1    0       0.000000      0.000000      0.000000    -0.000000   -0.000000   -0.000000
             2    0       0.000000      1.805000      1.805000    -0.000000   -0.000000    0.000000
             3    0       1.805000      0.000000      1.805000     0.000000    0.000000   -0.000000
             4    0       1.805000      1.805000      0.000000    -0.000000    0.000000    0.000000
 Energy
         -0.023064413315
 PlusStress:  xx          yy          zz          yz          xz          xy
        -0.64711    -0.64711    -0.64711    -0.00000    -0.00000     0.00000
END_CFG

BEGIN_CFG
 Size
    4
 Supercell
         3.610000      0.000000      0.000000
         0.000000      3.610000      0.000000
         0.000000      0.000000      3.610000
 AtomData:  id type       cartes_x      cartes_y      cartes_z           fx          fy          fz
             1    0       0.005511     -0.018809      0.013573    -0.099014    0.068845   -0.202060
             2    0       0.017011      1.769714      1.781449    -0.184869    0.170044    0.291008
             3    0       1.807312     -0.005720      1.804696     0.075343   -0.028330    0.117408
             4    0       1.789572      1.820905      0.014067     0.208539   -0.210558   -0.206355
 Energy
         -0.008220396726
 PlusStress:  xx          yy          zz          yz          xz          xy
        -0.57694    -0.58618    -0.59492     0.01498    -0.02735    -0.02206
END_CFG

BEGIN_CFG
 Size
    4
 Supercell
         3.610000      0.000000      0.000000
         0.000000      3.610000      0.000000
         0.000000      0.000000      3.610000
 AtomData:  id type       cartes_x      cartes_y      cartes_z           fx          fy          fz
             1    0       0.010644     -0.037358      0.026376    -0.196086    0.134616   -0.394830
             2    0       0.033319      1.735069      1.759003    -0.367689    0.337646    0.574478
             3    0       1.809913     -0.011546      1.804842     0.146608   -0.056883    0.226940
             4    0       1.774936      1.836013      0.027349     0.417168   -0.415379   -0.406588
 Energy
          0.033995187511
 PlusStress:  xx          yy          zz          yz          xz          xy
        -0.37755    -0.41297    -0.44785     0.05690    -0.10446    -0.08407
END_CFG

BEGIN_CFG
 Size
    4
 Supercell
         3.610000      0.000000      0.000000
         0.000000      3.610000      0.000000
         0.000000      0.000000      3.610000
 AtomData:  id type       cartes_x      cartes_y      cartes_z           fx          fy          fz
             1    0       0.015028     -0.055396      0.037675    -0.287269    0.194513   -0.568344
             2    0       0.048229      1.701703      1.738742    -0.542522    0.499763    0.839648
             3    0       1.813076     -0.017586      1.805856     0.208772   -0.085758    0.320265
             4    0       1.761885      1.849548      0.039081     0.621020   -0.608518   -0.591569
 Energy
          0.096743479549
 PlusStress:  xx          yy          zz          yz          xz          xy
        -0.08153    -0.15593    -0.23360     0.11716    -0.21681    -0.17404
END_CFG

BEGIN_CFG
 Size
    4
 Supercell
         3.610000      0.000000      0.000000
         0.000000      3.610000      0.000000
         0.000000      0.000000      3.610000
 AtomData:  id type       cartes_x      cartes_y      cartes_z           fx          fy          fz
             1    0       0.018316     -0.072697      0.046808    -0.365397    0.246219   -0.711760
             2    0       0.061073      1.670232      1.721677    -0.697405    0.652317    1.070901
             3    0       1.817039     -0.023948      1.808098     0.255443   -0.114839    0.388570
             4    0       1.751196      1.860772      0.048557     0.807360   -0.783697   -0.747711
 Energy
          0.169238282239
 PlusStress:  xx          yy          zz          yz          xz          xy
         0.26038     0.13986     0.00561     0.18294    -0.34217    -0.27388
END_CFG

BEGIN_CFG
 Size
    4
 Supercell
         3.610000      0.000000      0.000000
         0.000000      3.610000      0.000000
         0.000000      0.000000      3.610000
 AtomData:  id type       cartes_x      cartes_y      cartes_z           fx          fy          fz
             1    0       0.020209     -0.089064      0.053226    -0.420317    0.288091   -0.814045
             2    0       0.071261      1.641241      1.708691    -0.815572    0.790028    1.248996
             3    0       1.821982     -0.030744      1.811828     0.279339   -0.143514    0.423364
             4    0       1.743579      1.869015      0.055179     0.956549   -0.934605   -0.858316
 Energy
          0.238299375747
 PlusStress:  xx          yy          zz          yz          xz          xy
         0.58762     0.41954     0.22099     0.23971    -0.45452    -0.36250
END_CFG

BEGIN_CFG
 Size
    4
 Supercell
         3.610000      0.000000      0.000000
         0.000000      3.610000      0.000000
         0.000000      0.000000      3.610000
 AtomData:  id type       cartes_x      cartes_y      cartes_z           fx          fy          fz
             1    0       0.020499     -0.104337      0.056538    -0.440911    0.319244   -0.865467
             2    0       0.078340      1.615258      1.700466    -0.880064    0.906964    1.355459
             3    0       1.827996     -0.038080      1.817181     0.273730   -0.170653    0.417833
             4    0       1.739601      1.873697      0.058524     1.047245   -1.055555   -0.907825
 Energy
          0.291127188899
 PlusStress:  xx          yy          zz          yz          xz          xy
         0.84294     0.63040     0.36905     0.27413    -0.53006    -0.41978
END_CFG

BEGIN_CFG
 Size
    4
 Supercell
         3.610000      0.000000      0.000000
         0.000000      3.610000      0.000000
         0.000000      0.000000      3.610000
 AtomData:  id type       cartes_x      cartes_y      cartes_z           fx          fy          fz
             1    0       0.019109     -0.118397      0.056548    -0.418225    0.339580   -0.859506
             2    0       0.082064      1.592731      1.697409    -0.879890    0.997474    1.378372
             3    0       1.835061     -0.046060      1.824136     0.234273   -0.194642    0.368412
             4    0       1.739609      1.874354      0.058401     1.063842   -1.142413   -0.887278
 Energy
          0.318693120137
 PlusStress:  xx          yy          zz          yz          xz          xy
         0.98644     0.73550     0.42332     0.27659    -0.55297    -0.43051
END_CFG

BEGIN_CFG
 Size
    4
 Supercell
         3.610000      0.000000      0.000000
         0.000000      3.610000      0.000000
         0.000000      0.000000      3.610000
 AtomData:  id type       cartes_x      cartes_y      cartes_z           fx          fy          fz
             1    0       0.016125     -0.131167      0.053277    -0.348631    0.349624   -0.794354
             2    0       0.082434      1.574007      1.699608    -0.814507    1.057338    1.316538
             3    0       1.843026     -0.054775      1.832505     0.160563   -0.213790    0.275814
             4    0       1.743664      1.870652      0.054888     1.002575   -1.193172   -0.797999
 Energy
          0.318309820487
 PlusStress:  xx          yy          zz          yz          xz          xy
         1.00487     0.72368     0.38110     0.24271    -0.51863    -0.38746
END_CFG

BEGIN_CFG
 Size
    4
 Supercell
         3.610000      0.000000      0.000000
         0.000000      3.610000      0.000000
         0.000000      0.000000      3.610000
 AtomData:  id type       cartes_x      cartes_y      cartes_z           fx          fy          fz
             1    0       0.011814     -0.142610      0.046976    -0.235530    0.350102   -0.673582
             2    0       0.079699      1.559317      1.706827    -0.694141    1.084709    1.179859
             3    0       1.851610     -0.064297      1.841935     0.056643   -0.226797    0.145160
             4    0       1.751533      1.862396      0.048325     0.873029   -1.208013   -0.651437
 Energy
          0.294034018087
 PlusStress:  xx          yy          zz          yz          xz          xy
         0.91244     0.61153     0.26273     0.17428    -0.43315    -0.29322
END_CFG

BEGIN_CFG
 Size
    4
 Supercell
         3.610000      0.000000      0.000000
         0.000000      3.610000      0.000000
         0.000000      0.000000      3.610000
 AtomData:  id type       cartes_x      cartes_y      cartes_z           fx          fy          fz
             1    0       0.006606     -0.152723      0.038105    -0.088911    0.341378   -0.505640
             2    0       0.074315      1.548765      1.718545    -0.536164    1.080434    0.985856
             3    0       1.860417     -0.074675      1.851928    -0.069611   -0.233151   -0.014796
             4    0       1.762724      1.849530      0.039270     0.694686   -1.188662   -0.465420
 Energy
          0.254681942274
 PlusStress:  xx          yy          zz          yz          xz          xy
         0.74361     0.43672     0.10421     0.07968    -0.31034    -0.16051
END_CFG

BEGIN_CFG
 Size
    4
 Supercell
         3.610000      0.000000      0.000000
         0.000000      3.610000      0.000000
         0.000000      0.000000      3.610000
 AtomData:  id type       cartes_x      cartes_y      cartes_z           fx          fy          fz
             1    0       0.001058     -0.161542      0.027305     0.076747    0.323185   -0.302730
             2    0       0.066886      1.542334      1.734021    -0.359761    1.047278    0.754532
             3    0       1.868966     -0.085935      1.861873    -0.207722   -0.233226   -0.192755
             4    0       1.776558      1.832128      0.028432     0.490735   -1.137238   -0.259047
 Energy
          0.210546783774
 PlusStress:  xx          yy          zz          yz          xz          xy
         0.54136     0.24537    -0.05388    -0.02688    -0.16814    -0.01034
END_CFG

BEGIN_CFG
 Size
    4
 Supercell
         3.610000      0.000000      0.000000
         0.000000      3.610000      0.000000
         0.000000      0.000000      3.610000
 AtomData:  id type       cartes_x      cartes_y      cartes_z           fx          fy          fz
             1    0      -0.004200     -0.169135      0.015352     0.245227    0.294720   -0.079468
             2    0       0.058085      1.539898      1.752371    -0.181235    0.988487    0.503899
             3    0       1.876730     -0.098078      1.871093    -0.345945   -0.228090   -0.375875
             4    0       1.792259      1.810390      0.016601     0.281953   -1.055116   -0.048557
 Energy
          0.170332116462
 PlusStress:  xx          yy          zz          yz          xz          xy
         0.34509     0.07822    -0.17736    -0.12768    -0.02582     0.13205
END_CFG

BEGIN_CFG
 Size
    4
 Supercell
         3.610000      0.000000      0.000000
         0.000000      3.610000      0.000000
         0.000000      0.000000      3.610000
 AtomData:  id type       cartes_x      cartes_y      cartes_z           fx          fy          fz
             1    0      -0.008528     -0.175612      0.003095     0.400973    0.255305    0.148279
             2    0       0.048592      1.541228      1.772638    -0.011637    0.906391    0.247711
             3    0       1.883185     -0.111084      1.878889    -0.472311   -0.219090   -0.550471
             4    0       1.809032      1.784634      0.004580     0.082975   -0.942607    0.154482
 Energy
          0.139389828958
 PlusStress:  xx          yy          zz          yz          xz          xy
         0.18227    -0.03945    -0.24638    -0.20512     0.09768     0.24261
END_CFG

BEGIN_CFG
 Size
    4
 Supercell
         3.610000      0.000000      0.000000
         0.000000      3.610000      0.000000
         0.000000      0.000000      3.610000
 AtomData:  id type       cartes_x      cartes_y      cartes_z           fx          fy          fz
             1    0      -0.011334     -0.181122     -0.008598     0.530647    0.205200    0.364294
             2    0       0.039056      1.546006      1.793843     0.143070    0.801861   -0.004239
             3    0       1.887846     -0.124922      1.884595    -0.575309   -0.207229   -0.702657
             4    0       1.826118      1.755293     -0.006854    -0.098407   -0.799832    0.342602
 Energy
          0.119426664150
 PlusStress:  xx          yy          zz          yz          xz          xy
         0.06534    -0.10129    -0.25813    -0.24563     0.18517     0.30354
END_CFG

BEGIN_CFG
 Size
    4
 Supercell
         3.610000      0.000000      0.000000
         0.000000      3.610000      0.000000
         0.000000      0.000000      3.610000
 AtomData:  id type       cartes_x      cartes_y      cartes_z           fx          fy          fz
             1    0      -0.012125     -0.185856     -0.018904     0.624233    0.146251    0.553203
             2    0       0.030069      1.553832      1.815025     0.280317    0.674954   -0.244325
             3    0       1.890323     -0.139546      1.887632    -0.644976   -0.192706   -0.819416
             4    0       1.842825      1.722915     -0.016983    -0.259574   -0.628499    0.510538
 Energy
          0.109271294718
 PlusStress:  xx          yy          zz          yz          xz          xy
        -0.00659    -0.11678    -0.22478    -0.24270     0.22344     0.30700
END_CFG

BEGIN_CFG
 Size
    4
 Supercell
         3.610000      0.000000      0.000000
         0.000000      3.610000      0.000000
         0.000000      0.000000      3.610000
 AtomData:  id type       cartes_x      cartes_y      cartes_z           fx          fy          fz
             1    0      -0.010542     -0.190037     -0.027103     0.675715    0.081859    0.701986
             2    0       0.022154      1.564218      1.835269     0.398412    0.526343   -0.464824
             3    0       1.890347     -0.154902      1.887553    -0.674093   -0.174653   -0.890039
             4    0       1.858540      1.688155     -0.025164    -0.400034   -0.433549    0.652877
 Energy
          0.106066268023
 PlusStress:  xx          yy          zz          yz          xz          xy
        -0.04330    -0.10427    -0.16786    -0.19840     0.20656     0.25640
END_CFG

BEGIN_CFG
 Size
    4
 Supercell
         3.610000      0.000000      0.000000
         0.000000      3.610000      0.000000
         0.000000      0.000000      3.610000
 AtomData:  id type       cartes_x      cartes_y      cartes_z           fx          fy          fz
             1    0      -0.006390     -0.193909     -0.032628     0.683539    0.016412    0.801691
             2    0       0.015760      1.576599      1.853736     0.494387    0.358497   -0.656458
             3    0       1.887808     -0.170922      1.884087    -0.659587   -0.151321   -0.907733
             4    0       1.872727      1.651755     -0.030854    -0.518339   -0.223589    0.762500
 Energy
          0.106448161365
 PlusStress:  xx          yy          zz          yz          xz          xy
        -0.05826    -0.08352    -0.11157    -0.12304     0.13913     0.16539
END_CFG

BEGIN_CFG
 Size
    4
 Supercell
         3.610000      0.000000      0.000000
         0.000000      3.610000      0.000000
         0.000000      0.000000      3.610000
 AtomData:  id type       cartes_x      cartes_y      cartes_z           fx          fy          fz
             1    0       0.000363     -0.197721     -0.035099     0.650190   -0.045758    0.848438
             2    0       0.011252      1.590339      1.869697     0.563043    0.176110   -0.808448
             3    0       1.882757     -0.187516      1.877164    -0.602932   -0.120774   -0.870484
             4    0       1.884938      1.614510     -0.033638    -0.610301   -0.009577    0.830494
 Energy
          0.107485737234
 PlusStress:  xx          yy          zz          yz          xz          xy
        -0.06395    -0.06998    -0.07647    -0.03301     0.03714     0.05479
END_CFG

BEGIN_CFG
 Size
    4
 Supercell
         3.610000      0.000000      0.000000
         0.000000      3.610000      0.000000
         0.000000      0.000000      3.610000
 AtomData:  id type       cartes_x      cartes_y      cartes_z           fx          fy          fz
             1    0       0.009592     -0.201707     -0.034336     0.580935   -0.101379    0.843165
             2    0       0.008891      1.604748      1.882577     0.597800   -0.014503   -0.910235
             3    0       1.875410     -0.204569      1.866925    -0.509436   -0.081782   -0.780775
             4    0       1.894824      1.577231     -0.033256    -0.669299    0.197664    0.847846
 Energy
          0.107404791890
 PlusStress:  xx          yy          zz          yz          xz          xy
        -0.06794    -0.07141    -0.07458     0.05263    -0.07490    -0.05160
END_CFG

BEGIN_CFG
 Size
    4
 Supercell
         3.610000      0.000000      0.000000
         0.000000      3.610000      0.000000
         0.000000      0.000000      3.610000
 AtomData:  id type       cartes_x      cartes_y      cartes_z           fx          fy          fz
             1    0       0.021034     -0.206079     -0.030359     0.481835   -0.148783    0.790035
             2    0       0.008806      1.619104      1.891988     0.593006   -0.206534   -0.954208
             3    0       1.866121     -0.221934      1.853708    -0.386240   -0.034651   -0.644226
             4    0       1.902162      1.540702     -0.029643    -0.688601    0.389968    0.808399
 Energy
          0.106113215623
 PlusStress:  xx          yy          zz          yz          xz          xy
        -0.07017    -0.08672    -0.10622     0.11587    -0.17027    -0.13121
END_CFG

BEGIN_CFG
 Size
    4
 Supercell
         3.610000      0.000000      0.000000
         0.000000      3.610000      0.000000
         0.000000      0.000000      3.610000
 AtomData:  id type       cartes_x      cartes_y      cartes_z           fx          fy          fz
             1    0       0.034313     -0.211017     -0.023371     0.357873   -0.187893    0.694378
             2    0       0.010979      1.632678      1.897766     0.546457   -0.393713   -0.938175
             3    0       1.855356     -0.239433      1.838032    -0.240041    0.018498   -0.467839
             4    0       1.906881      1.505653     -0.022948    -0.664289    0.563108    0.711636
 Energy
          0.105433242150
 PlusStress:  xx          yy          zz          yz          xz          xy
        -0.06199    -0.10622    -0.15933     0.14265    -0.22715    -0.16610
END_CFG

BEGIN_CFG
 Size
    4
 Supercell
         3.610000      0.000000      0.000000
         0.000000      3.610000      0.000000
         0.000000      0.000000      3.610000
 AtomData:  id type       cartes_x      cartes_y      cartes_z           fx          fy          fz
             1    0       0.048957     -0.216667     -0.013736     0.212071   -0.219672    0.561021
             2    0       0.015233      1.644761      1.899972     0.460892   -0.570908   -0.866199
             3    0       1.843672     -0.256863      1.820568    -0.075710    0.074096   -0.258580
             4    0       1.909073      1.472742     -0.013539    -0.597253    0.716484    0.563758
 Energy
          0.108801393190
 PlusStress:  xx          yy          zz          yz          xz          xy
        -0.02809    -0.11366    -0.21191     0.12452    -0.23309    -0.14522
END_CFG

BEGIN_CFG
 Size
    4
 Supercell
         3.610000      0.000000      0.000000
         0.000000      3.610000      0.000000
         0.000000      0.000000      3.610000
 AtomData:  id type       cartes_x      cartes_y      cartes_z           fx          fy          fz
             1    0       0.064411     -0.223152     -0.001962     0.046002   -0.245242    0.393922
             2    0       0.021241      1.654676      1.898880     0.343746   -0.734228   -0.747621
             3    0       1.831693     -0.274016      1.802110     0.103716    0.128024   -0.022939
             4    0       1.908996      1.442553     -0.001980    -0.493465    0.851446    0.376638
 Energy
          0.120312461327
 PlusStress:  xx          yy          zz          yz          xz          xy
         0.04855    -0.09009    -0.23774     0.05930    -0.18590    -0.06585
END_CFG

BEGIN_CFG
 Size
    4
 Supercell
         3.610000      0.000000      0.000000
         0.000000      3.610000      0.000000
         0.000000      0.000000      3.610000
 AtomData:  id type       cartes_x      cartes_y      cartes_z           fx          fy          fz
             1    0       0.080042     -0.230566      0.011313    -0.138334   -0.265127    0.197254
             2    0       0.028560      1.661800      1.894944     0.205654   -0.880669   -0.594876
             3    0       1.820102     -0.290685      1.783557     0.295428    0.176580    0.232216
             4    0       1.907043      1.415603      0.011020    -0.362747    0.969215    0.165405
 Energy
          0.143217906000
 PlusStress:  xx          yy          zz          yz          xz          xy
         0.17947    -0.01986    -0.21444    -0.04847    -0.09163     0.06540
END_CFG

BEGIN_CFG
 Size
    4
 Supercell
         3.610000      0.000000      0.000000
         0.000000      3.610000      0.000000
         0.000000      0.000000      3.610000
 AtomData:  id type       cartes_x      cartes_y      cartes_z           fx          fy          fz
             1    0       0.095149     -0.238986      0.025340    -0.335779   -0.278752   -0.022510
             2    0       0.036663      1.665571      1.888744     0.058987   -1.007395   -0.421363
             3    0       1.809629     -0.306687      1.765880     0.494148    0.217332    0.497773
             4    0       1.903712      1.392342      0.024655    -0.217357    1.068815   -0.053899
 Energy
          0.178248387141
 PlusStress:  xx          yy          zz          yz          xz          xy
         0.36345     0.10228    -0.13182    -0.18732     0.03774     0.23237
END_CFG

BEGIN_CFG
 Size
    4
 Supercell
         3.610000      0.000000      0.000000
         0.000000      3.610000      0.000000
         0.000000      0.000000      3.610000
 AtomData:  id type       cartes_x      cartes_y      cartes_z           fx          fy          fz
             1    0       0.108982     -0.248461      0.039282    -0.535392   -0.284572   -0.254091
             2    0       0.044991      1.665505      1.880942    -0.083260   -1.110759   -0.240221
             3    0       1.801030     -0.321865      1.750091     0.689386    0.249505    0.760125
             4    0       1.899557      1.373151      0.038088    -0.070733    1.145826   -0.265813
 Energy
          0.222262295735
 PlusStress:  xx          yy          zz          yz          xz          xy
         0.58141     0.26543     0.00212    -0.33902     0.18557     0.41051
END_CFG

BEGIN_CFG
 Size
    4
 Supercell
         3.610000      0.000000      0.000000
         0.000000      3.610000      0.000000
         0.000000      0.000000      3.610000
 AtomData:  id type       cartes_x      cartes_y      cartes_z           fx          fy          fz
             1    0       0.120780     -0.259014      0.052257    -0.719327   -0.280698   -0.479953
             2    0       0.053003      1.661203      1.872230    -0.208239   -1.185630   -0.063885
             3    0       1.795048     -0.336094      1.737190     0.864007    0.273904    0.999999
             4    0       1.895135      1.358325      0.050510     0.063559    1.192423   -0.456161
 Energy
          0.267818098382
 PlusStress:  xx          yy          zz          yz          xz          xy
         0.79638     0.44109     0.16013    -0.48033     0.33104     0.57036
END_CFG

BEGIN_CFG
 Size
    4
 Supercell
         3.610000      0.000000      0.000000
         0.000000      3.610000      0.000000
         0.000000      0.000000      3.610000
 AtomData:  id type       cartes_x      cartes_y      cartes_z           fx          fy          fz
             1    0       0.129845     -0.270631      0.063405    -0.864785   -0.265914   -0.677428
             2    0       0.060222      1.652380      1.863280    -0.304261   -1.225765    0.096114
             3    0       1.792349     -0.349281      1.728092     0.995824    0.292366    1.193910
             4    0       1.890956      1.348041      0.061194     0.173222    1.199313   -0.612596
 Energy
          0.304335288443
 PlusStress:  xx          yy          zz          yz          xz          xy
         0.96040     0.58837     0.30152    -0.58676     0.45082     0.68326
END_CFG

BEGIN_CFG
 Size
    4
 Supercell
         3.610000      0.000000      0.000000
         0.000000      3.610000      0.000000
         0.000000      0.000000      3.610000
 AtomData:  id type       cartes_x      cartes_y      cartes_z           fx          fy          fz
             1    0       0.135625     -0.283254      0.071975    -0.949492   -0.240623   -0.823188
             2    0       0.066281      1.638883      1.854705    -0.362420   -1.225222    0.229614
             3    0       1.793433     -0.361352      1.723537     1.062883    0.306630    1.318966
             4    0       1.887440      1.342322      0.069539     0.249029    1.159216   -0.725392
 Energy
          0.320975767562
 PlusStress:  xx          yy          zz          yz          xz          xy
         1.02744     0.66522     0.38399    -0.63831     0.52334     0.72827
END_CFG

BEGIN_CFG
 Size
    4
 Supercell
         3.610000      0.000000      0.000000
         0.000000      3.610000      0.000000
         0.000000      0.000000      3.610000
 AtomData:  id type       cartes_x      cartes_y      cartes_z           fx          fy          fz
             1    0       0.137797     -0.296788      0.077411    -0.959102   -0.207019   -0.899883
             2    0       0.070957      1.620716      1.847014    -0.378387   -1.180577    0.328819
             3    0       1.798557     -0.372253      1.724003     1.050878    0.317271    1.359537
             4    0       1.884874      1.341014      0.075114     0.286611    1.070325   -0.788473
 Energy
          0.310453736722
 PlusStress:  xx          yy          zz          yz          xz          xy
         0.96833     0.64184     0.37756    -0.62525     0.53493     0.69786
END_CFG

BEGIN_CFG
 Size
    4
 Supercell
         3.610000      0.000000      0.000000
         0.000000      3.610000      0.000000
         0.000000      0.000000      3.610000
 AtomData:  id type       cartes_x      cartes_y      cartes_z           fx          fy          fz
             1    0       0.136324     -0.311105      0.079419    -0.892828   -0.168569   -0.901690
             2    0       0.074189      1.598050      1.840586    -0.353510   -1.092513    0.389207
             3    0       1.807674     -0.381942      1.729645     0.959220    0.322963    1.312403
             4    0       1.883403      1.343776      0.077676     0.287118    0.938118   -0.799921
 Energy
          0.272029177784
 PlusStress:  xx          yy          zz          yz          xz          xy
         0.78167     0.51115     0.27499    -0.55149     0.48510     0.60015
END_CFG

BEGIN_CFG
 Size
    4
 Supercell
         3.610000      0.000000      0.000000
         0.000000      3.610000      0.000000
         0.000000      0.000000      3.610000
 AtomData:  id type       cartes_x      cartes_y      cartes_z           fx          fy          fz
             1    0       0.131459     -0.326060      0.077993    -0.763733   -0.128876   -0.835450
             2    0       0.076070      1.571224      1.835653    -0.294426   -0.966006    0.409987
             3    0       1.820438     -0.390399      1.740284     0.801747    0.320776    1.187193
             4    0       1.883030      1.350102      0.077182     0.256412    0.774106   -0.761730
 Energy
          0.212031266115
 PlusStress:  xx          yy          zz          yz          xz          xy
         0.49572     0.29187     0.09423    -0.43364     0.38759     0.45671
END_CFG

BEGIN_CFG
 Size
    4
 Supercell
         3.610000      0.000000      0.000000
         0.000000      3.610000      0.000000
         0.000000      0.000000      3.610000
 AtomData:  id type       cartes_x      cartes_y      cartes_z           fx          fy          fz
             1    0       0.123692     -0.341500      0.073383    -0.593330   -0.090698   -0.716632
             2    0       0.076826      1.540724      1.832292    -0.211264   -0.808771    0.393736
             3    0       1.836248     -0.397633      1.755444     0.601563    0.307228    1.001732
             4    0       1.883637      1.359366      0.073778     0.203031    0.592241   -0.678836
 Energy
          0.141720154391
 PlusStress:  xx          yy          zz          yz          xz          xy
         0.16056     0.02357    -0.12777    -0.29622     0.26626     0.29682
END_CFG

BEGIN_CFG
 Size
    4
 Supercell
         3.610000      0.000000      0.000000
         0.000000      3.610000      0.000000
         0.000000      0.000000      3.610000
 AtomData:  id type       cartes_x      cartes_y      cartes_z           fx          fy          fz
             1    0       0.113671     -0.357281      0.066042    -0.403569   -0.055429   -0.562795
             2    0       0.076773      1.507151      1.830439    -0.114893   -0.628960    0.345489