BEGIN_CFG
 Size
    4
 Supercell
         3.610000      0.000000      0.000000
         0.000000      3.610000      0.000000
         0.000000      0.000000      3.610000
 AtomData:  id type       cartes_x      cartes_y      cartes_z           fx          fy          fz
             1    0       0.000000      0.000000      0.000000     0.000000    0.000000    0.000000
             2    0       0.000000      1.805000      1.805000     0.000000    0.000000    0.000000
             3    0       1.805000      0.000000      1.805000    -0.000000    0.000000    0.000000
             4    0       1.805000      1.805000      0.000000    -0.000000   -0.000000    0.000000
 Energy
         -0.022873797115
 PlusStress:  xx          yy          zz          yz          xz          xy
        -0.61858    -0.61858    -0.61858     0.00000     0.00000    -0.00000
END_CFG

BEGIN_CFG
 Size
    4
 Supercell
         3.610000      0.000000      0.000000
         0.000000      3.610000      0.000000
         0.000000      0.000000      3.610000
 AtomData:  id type       cartes_x      cartes_y      cartes_z           fx          fy          fz
             1    0       0.005511     -0.018809      0.013573    -0.099370    0.068149   -0.201788
             2    0       0.017011      1.769714      1.781449    -0.184023    0.167362    0.289503
             3    0       1.807312     -0.005720      1.804696     0.076035   -0.027679    0.118294
             4    0       1.789572      1.820905      0.014067     0.207359   -0.207831   -0.206009
 Energy
         -0.008147695560
 PlusStress:  xx          yy          zz          yz          xz          xy
        -0.55630    -0.56402    -0.57417     0.01561    -0.02759    -0.02263
END_CFG

BEGIN_CFG
 Size
    4
 Supercell
         3.610000      0.000000      0.000000
         0.000000      3.610000      0.000000
         0.000000      0.000000      3.610000
 AtomData:  id type       cartes_x      cartes_y      cartes_z           fx          fy          fz
             1    0       0.010644     -0.037358      0.026376    -0.197146    0.133699   -0.395406
             2    0       0.033319      1.735069      1.759003    -0.366811    0.332965    0.573116
             3    0       1.809913     -0.011546      1.804842     0.148250   -0.055750    0.229201
             4    0       1.774936      1.836013      0.027349     0.415707   -0.410914   -0.406911
 Energy
          0.033796705695
 PlusStress:  xx          yy          zz          yz          xz          xy
        -0.37883    -0.40852    -0.44878     0.05928    -0.10548    -0.08622
END_CFG

BEGIN_CFG
 Size
    4
 Supercell
         3.610000      0.000000      0.000000
         0.000000      3.610000      0.000000
         0.000000      0.000000      3.610000
 AtomData:  id type       cartes_x      cartes_y      cartes_z           fx          fy          fz
             1    0       0.015028     -0.055396      0.037675    -0.289614    0.194147   -0.571552
             2    0       0.048229      1.701703      1.738742    -0.542972    0.494094    0.841083
             3    0       1.813076     -0.017586      1.805856     0.211756   -0.084422    0.324660
             4    0       1.761885      1.849548      0.039081     0.620829   -0.603819   -0.594191
 Energy
          0.096308594689
 PlusStress:  xx          yy          zz          yz          xz          xy
        -0.11379    -0.17648    -0.26527     0.12210    -0.21937    -0.17848
END_CFG

BEGIN_CFG
 Size
    4
 Supercell
         3.610000      0.000000      0.000000
         0.000000      3.610000      0.000000
         0.000000      0.000000      3.610000
 AtomData:  id type       cartes_x      cartes_y      cartes_z           fx          fy          fz
             1    0       0.018316     -0.072697      0.046808    -0.369577    0.247167   -0.719235
             2    0       0.061073      1.670232      1.721677    -0.700560    0.646565    1.077673
             3    0       1.817039     -0.023948      1.808098     0.260054   -0.113594    0.395724
             4    0       1.751196      1.860772      0.048557     0.810083   -0.780138   -0.754163
 Energy
          0.168755119513
 PlusStress:  xx          yy          zz          yz          xz          xy
         0.19517     0.09303    -0.05890     0.19093    -0.34716    -0.28102
END_CFG

BEGIN_CFG
 Size
    4
 Supercell
         3.610000      0.000000      0.000000
         0.000000      3.610000      0.000000
         0.000000      0.000000      3.610000
 AtomData:  id type       cartes_x      cartes_y      cartes_z           fx          fy          fz
             1    0       0.020209     -0.089064      0.053226    -0.426460    0.290782   -0.826381
             2    0       0.071261      1.641241      1.708691    -0.822106    0.784693    1.262222
             3    0       1.821982     -0.030744      1.811828     0.285484   -0.142566    0.433327
             4    0       1.743579      1.869015      0.055179     0.963081   -0.932909   -0.869169
 Energy
          0.237948169313
 PlusStress:  xx          yy          zz          yz          xz          xy
         0.49456     0.35120     0.12870     0.25095    -0.46257    -0.37239
END_CFG

BEGIN_CFG
 Size
    4
 Supercell
         3.610000      0.000000      0.000000
         0.000000      3.610000      0.000000
         0.000000      0.000000      3.610000
 AtomData:  id type       cartes_x      cartes_y      cartes_z           fx          fy          fz
             1    0       0.020499     -0.104337      0.056538    -0.448412    0.323572   -0.881662
             2    0       0.078340      1.615258      1.700466    -0.889360    0.902021    1.373926
             3    0       1.827996     -0.038080      1.817181     0.280798   -0.170045    0.429839
             4    0       1.739601      1.873697      0.058524     1.056974   -1.055548   -0.922103
 Energy
          0.290906151900
 PlusStress:  xx          yy          zz          yz          xz          xy
         0.73189     0.54938     0.25919     0.28841    -0.54087    -0.43197
END_CFG

BEGIN_CFG
 Size
    4
 Supercell
         3.610000      0.000000      0.000000
         0.000000      3.610000      0.000000
         0.000000      0.000000      3.610000
 AtomData:  id type       cartes_x      cartes_y      cartes_z           fx          fy          fz
             1    0       0.019109     -0.118397      0.056548    -0.425812    0.344917   -0.877143
             2    0       0.082064      1.592731      1.697409    -0.890116    0.992433    1.398734
             3    0       1.835061     -0.046060      1.824136     0.241277   -0.194237    0.381057
             4    0       1.739609      1.874354      0.058401     1.074650   -1.143112   -0.902647
 Energy
          0.318379367635
 PlusStress:  xx          yy          zz          yz          xz          xy
         0.86903     0.65207     0.30835     0.29315    -0.56508    -0.44405
END_CFG

BEGIN_CFG
 Size
    4
 Supercell
         3.610000      0.000000      0.000000
         0.000000      3.610000      0.000000
         0.000000      0.000000      3.610000
 AtomData:  id type       cartes_x      cartes_y      cartes_z           fx          fy          fz
             1    0       0.016125     -0.131167      0.053277    -0.354906    0.355043   -0.810526
             2    0       0.082434      1.574007      1.699608    -0.823487    1.051516    1.334740
             3    0       1.843026     -0.054775      1.832505     0.166543   -0.213338    0.287575
             4    0       1.743664      1.870652      0.054888     1.011849   -1.193222   -0.811788
 Energy
          0.317604954837
 PlusStress:  xx          yy          zz          yz          xz          xy
         0.89227     0.64758     0.27335     0.26042    -0.53004    -0.40117
END_CFG

BEGIN_CFG
 Size
    4
 Supercell
         3.610000      0.000000      0.000000
         0.000000      3.610000      0.000000
         0.000000      0.000000      3.610000
 AtomData:  id type       cartes_x      cartes_y      cartes_z           fx          fy          fz
             1    0       0.011814     -0.142610      0.046976    -0.239654    0.354699   -0.686049
             2    0       0.079699      1.559317      1.706827    -0.700418    1.077635    1.192899
             3    0       1.851610     -0.064297      1.841935     0.061074   -0.226064    0.154956
             4    0       1.751533      1.862396      0.048325     0.878997   -1.206270   -0.661807
 Energy
          0.292775407844
 PlusStress:  xx          yy          zz          yz          xz          xy
         0.81405     0.55075     0.17246     0.19193    -0.44220    -0.30617
END_CFG

BEGIN_CFG
 Size
    4
 Supercell
         3.610000      0.000000      0.000000
         0.000000      3.610000      0.000000
         0.000000      0.000000      3.610000
 AtomData:  id type       cartes_x      cartes_y      cartes_z           fx          fy          fz
             1    0       0.006606     -0.152723      0.038105    -0.090920    0.344529   -0.513530
             2    0       0.074315      1.548765      1.718545    -0.539459    1.072138    0.992763
             3    0       1.860417     -0.074675      1.851928    -0.066693   -0.232040   -0.007367
             4    0       1.762724      1.849530      0.039270     0.697072   -1.184626   -0.471866
 Energy
          0.252945685577
 PlusStress:  xx          yy          zz          yz          xz          xy
         0.66554     0.39590     0.03758     0.09617    -0.31625    -0.17213
END_CFG

BEGIN_CFG
 Size
    4
 Supercell
         3.610000      0.000000      0.000000
         0.000000      3.610000      0.000000
         0.000000      0.000000      3.610000
 AtomData:  id type       cartes_x      cartes_y      cartes_z           fx          fy          fz
             1    0       0.001058     -0.161542      0.027305     0.076176    0.324675   -0.306481
             2    0       0.066886      1.542334      1.734021    -0.360654    1.038282    0.756133
             3    0       1.868966     -0.085935      1.861873    -0.205925   -0.231816   -0.187569
             4    0       1.776558      1.832128      0.028432     0.490403   -1.131140   -0.262083
 Energy
          0.208589030056
 PlusStress:  xx          yy          zz          yz          xz          xy
         0.48483     0.22404    -0.09659    -0.01257    -0.17091    -0.02024
END_CFG

BEGIN_CFG
 Size
    4
 Supercell
         3.610000      0.000000      0.000000
         0.000000      3.610000      0.000000
         0.000000      0.000000      3.610000
 AtomData:  id type       cartes_x      cartes_y      cartes_z           fx          fy          fz
             1    0      -0.004200     -0.169135      0.015352     0.245315    0.294728   -0.080221
             2    0       0.058085      1.539898      1.752371    -0.180537    0.979555    0.501899
             3    0       1.876730     -0.098078      1.871093    -0.344854   -0.226581   -0.372620
             4    0       1.792259      1.810390      0.016601     0.280076   -1.047702   -0.049058
 Energy
          0.168454521916
 PlusStress:  xx          yy          zz          yz          xz          xy
         0.30595     0.07043    -0.20206    -0.11646    -0.02593     0.12437
END_CFG

BEGIN_CFG
 Size
    4
 Supercell
         3.610000      0.000000      0.000000
         0.000000      3.610000      0.000000
         0.000000      0.000000      3.610000
 AtomData:  id type       cartes_x      cartes_y      cartes_z           fx          fy          fz
             1    0      -0.008528     -0.175612      0.003095     0.401259    0.254289    0.149358
             2    0       0.048592      1.541228      1.772638    -0.009958    0.898250    0.243808
             3    0       1.883185     -0.111084      1.878889    -0.471719   -0.217709   -0.548912
             4    0       1.809032      1.784634      0.004580     0.080418   -0.934830    0.155746
 Energy
          0.137833873057
 PlusStress:  xx          yy          zz          yz          xz          xy
         0.15259    -0.04306    -0.26316    -0.19758     0.09948     0.23763
END_CFG

BEGIN_CFG
 Size
    4
 Supercell
         3.610000      0.000000      0.000000
         0.000000      3.610000      0.000000
         0.000000      0.000000      3.610000
 AtomData:  id type       cartes_x      cartes_y      cartes_z           fx          fy          fz
             1    0      -0.011334     -0.181122     -0.008598     0.531082    0.203714    0.366415
             2    0       0.039056      1.546006      1.793843     0.145388    0.795033   -0.008822
             3    0       1.887846     -0.124922      1.884595    -0.575240   -0.206145   -0.702697
             4    0       1.826118      1.755293     -0.006854    -0.101231   -0.792603    0.345104
 Energy
          0.118331176981
 PlusStress:  xx          yy          zz          yz          xz          xy
         0.03635    -0.10991    -0.27772    -0.24170     0.18800     0.30141
END_CFG

BEGIN_CFG
 Size
    4
 Supercell
         3.610000      0.000000      0.000000
         0.000000      3.610000      0.000000
         0.000000      0.000000      3.610000
 AtomData:  id type       cartes_x      cartes_y      cartes_z           fx          fy          fz
             1    0      -0.012125     -0.185856     -0.018904     0.625019    0.144771    0.556003
             2    0       0.030069      1.553832      1.815025     0.283074    0.669731   -0.248944
             3    0       1.890323     -0.139546      1.887632    -0.645558   -0.191988   -0.820982
             4    0       1.842825      1.722915     -0.016983    -0.262535   -0.622514    0.513923
 Energy
          0.108671636436
 PlusStress:  xx          yy          zz          yz          xz          xy
        -0.04159    -0.13631    -0.25514    -0.24157     0.22644     0.30722
END_CFG

BEGIN_CFG
 Size
    4
 Supercell
         3.610000      0.000000      0.000000
         0.000000      3.610000      0.000000
         0.000000      0.000000      3.610000
 AtomData:  id type       cartes_x      cartes_y      cartes_z           fx          fy          fz
             1    0      -0.010542     -0.190037     -0.027103     0.677056    0.080674    0.705371
             2    0       0.022154      1.564218      1.835269     0.401419    0.522809   -0.469302
             3    0       1.890347     -0.154902      1.887553    -0.675410   -0.174278   -0.892940
             4    0       1.858540      1.688155     -0.025164    -0.403064   -0.429205    0.656870
 Energy
          0.105909545509
 PlusStress:  xx          yy          zz          yz          xz          xy
        -0.08728    -0.13616    -0.21229    -0.19884     0.20904     0.25791
END_CFG

BEGIN_CFG
 Size
    4
 Supercell
         3.610000      0.000000      0.000000
         0.000000      3.610000      0.000000
         0.000000      0.000000      3.610000
 AtomData:  id type       cartes_x      cartes_y      cartes_z           fx          fy          fz
             1    0      -0.006390     -0.193909     -0.032628     0.685498    0.015595    0.805629
             2    0       0.015760      1.576599      1.853736     0.497422    0.356595   -0.660886
             3    0       1.887808     -0.170922      1.884087    -0.661602   -0.151215   -0.911604
             4    0       1.872727      1.651755     -0.030854    -0.521318   -0.220974    0.766861
 Energy
          0.106615587736
 PlusStress:  xx          yy          zz          yz          xz          xy
        -0.11033    -0.12539    -0.16848    -0.12384     0.14066     0.16697
END_CFG

BEGIN_CFG
 Size
    4
 Supercell
         3.610000      0.000000      0.000000
         0.000000      3.610000      0.000000
         0.000000      0.000000      3.610000
 AtomData:  id type       cartes_x      cartes_y      cartes_z           fx          fy          fz
             1    0       0.000363     -0.197721     -0.035099     0.652658   -0.046284    0.852822
             2    0       0.011252      1.590339      1.869697     0.565868    0.175740   -0.812930
             3    0       1.882757     -0.187516      1.877164    -0.605505   -0.120878   -0.874884
             4    0       1.884938      1.614510     -0.033638    -0.613021   -0.008578    0.834991
 Energy
          0.107818794903
 PlusStress:  xx          yy          zz          yz          xz          xy
        -0.12028    -0.11713    -0.14054    -0.03333     0.03753     0.05546
END_CFG

BEGIN_CFG
 Size
    4
 Supercell
         3.610000      0.000000      0.000000
         0.000000      3.610000      0.000000
         0.000000      0.000000      3.610000
 AtomData:  id type       cartes_x      cartes_y      cartes_z           fx          fy          fz
             1    0       0.009592     -0.201707     -0.034336     0.583689   -0.101737    0.847774
             2    0       0.008891      1.604748      1.882577     0.600189   -0.013348   -0.914665
             3    0       1.875410     -0.204569      1.866925    -0.512395   -0.082098   -0.785352
             4    0       1.894824      1.577231     -0.033256    -0.671483    0.197184    0.852243
 Energy
          0.107728717426
 PlusStress:  xx          yy          zz          yz          xz          xy
        -0.12330    -0.11824    -0.13858     0.05332    -0.07566    -0.05238
END_CFG

BEGIN_CFG
 Size
    4
 Supercell
         3.610000      0.000000      0.000000
         0.000000      3.610000      0.000000
         0.000000      0.000000      3.610000
 AtomData:  id type       cartes_x      cartes_y      cartes_z           fx          fy          fz
             1    0       0.021034     -0.206079     -0.030359     0.484608   -0.149060    0.794571
             2    0       0.008806      1.619104      1.891988     0.594775   -0.203710   -0.958200
             3    0       1.866121     -0.221934      1.853708    -0.389433   -0.035259   -0.648848
             4    0       1.902162      1.540702     -0.029643    -0.689951    0.388029    0.812477
 Energy
          0.106254545191
 PlusStress:  xx          yy          zz          yz          xz          xy
        -0.11965    -0.12777    -0.16309     0.11802    -0.17205    -0.13358
END_CFG

BEGIN_CFG
 Size
    4
 Supercell
         3.610000      0.000000      0.000000
         0.000000      3.610000      0.000000
         0.000000      0.000000      3.610000
 AtomData:  id type       cartes_x      cartes_y      cartes_z           fx          fy          fz
             1    0       0.034313     -0.211017     -0.023371     0.360410   -0.188109    0.698545
             2    0       0.010979      1.632678      1.897766     0.547532   -0.389008   -0.941214
             3    0       1.855356     -0.239433      1.838032    -0.243347    0.017490   -0.472582
             4    0       1.906881      1.505653     -0.022948    -0.664595    0.559626    0.715251
 Energy
          0.105236233465
 PlusStress:  xx          yy          zz          yz          xz          xy
        -0.10264    -0.13728    -0.20416     0.14671    -0.22961    -0.16998
END_CFG

BEGIN_CFG
 Size
    4
 Supercell
         3.610000      0.000000      0.000000
         0.000000      3.610000      0.000000
         0.000000      0.000000      3.610000
 AtomData:  id type       cartes_x      cartes_y      cartes_z           fx          fy          fz
             1    0       0.048957     -0.216667     -0.013736     0.214154   -0.219808    0.564584
             2    0       0.015233      1.644761      1.899972     0.461345   -0.564262   -0.867881
             3    0       1.843672     -0.256863      1.820568    -0.078994    0.072650   -0.263554
             4    0       1.909073      1.472742     -0.013539    -0.596505    0.711421    0.566851
 Energy
          0.108149158974
 PlusStress:  xx          yy          zz          yz          xz          xy
        -0.06018    -0.13302    -0.24355     0.13086    -0.23569    -0.15046
END_CFG

BEGIN_CFG
 Size
    4
 Supercell
         3.610000      0.000000      0.000000
         0.000000      3.610000      0.000000
         0.000000      0.000000      3.610000
 AtomData:  id type       cartes_x      cartes_y      cartes_z           fx          fy          fz
             1    0       0.064411     -0.223152     -0.001962     0.047414   -0.245293    0.396667
             2    0       0.021241      1.654676      1.898880     0.343736   -0.725972   -0.747780
             3    0       1.831693     -0.274016      1.802110     0.100706    0.126263   -0.027987
             4    0       1.908996      1.442553     -0.001980    -0.491856    0.845002    0.379100
 Energy
          0.119154035907
 PlusStress:  xx          yy          zz          yz          xz          xy
         0.02097    -0.09967    -0.25961     0.06792    -0.18792    -0.07226
END_CFG

BEGIN_CFG
 Size
    4
 Supercell
         3.610000      0.000000      0.000000
         0.000000      3.610000      0.000000
         0.000000      0.000000      3.610000
 AtomData:  id type       cartes_x      cartes_y      cartes_z           fx          fy          fz
             1    0       0.080042     -0.230566      0.011313    -0.137942   -0.265134    0.198831
             2    0       0.028560      1.661800      1.894944     0.205257   -0.871641   -0.593502
             3    0       1.820102     -0.290685      1.783557     0.293203    0.174830    0.227834
             4    0       1.907043      1.415603      0.011020    -0.360518    0.961946    0.166837
 Energy
          0.141599293589
 PlusStress:  xx          yy          zz          yz          xz          xy
         0.14929    -0.02537    -0.23409    -0.03822    -0.09228     0.05820
END_CFG

BEGIN_CFG
 Size
    4
 Supercell
         3.610000      0.000000      0.000000
         0.000000      3.610000      0.000000
         0.000000      0.000000      3.610000
 AtomData:  id type       cartes_x      cartes_y      cartes_z           fx          fy          fz
             1    0       0.095149     -0.238986      0.025340    -0.337034   -0.278802   -0.022802
             2    0       0.036663      1.665571      1.888744     0.058014   -0.998872   -0.418395
             3    0       1.809629     -0.306687      1.765880     0.493593    0.216061    0.495554
             4    0       1.903712      1.392342      0.024655    -0.214573    1.061612   -0.054357
 Energy
          0.176338552269
 PlusStress:  xx          yy          zz          yz          xz          xy
         0.32249     0.09278    -0.15880    -0.17679     0.03925     0.22508
END_CFG

BEGIN_CFG
 Size
    4
 Supercell
         3.610000      0.000000      0.000000
         0.000000      3.610000      0.000000
         0.000000      0.000000      3.610000
 AtomData:  id type       cartes_x      cartes_y      cartes_z           fx          fy          fz
             1    0       0.108982     -0.248461      0.039282    -0.539211   -0.284741   -0.257357
             2    0       0.044991      1.665505      1.880942    -0.085292   -1.104160   -0.235419
             3    0       1.801030     -0.321865      1.750091     0.691668    0.249196    0.762132
             4    0       1.899557      1.373151      0.038088    -0.067165    1.139705   -0.269356
 Energy
          0.220347244263
 PlusStress:  xx          yy          zz          yz          xz          xy
         0.52340     0.24430    -0.04054    -0.33000     0.18989     0.40424
END_CFG

BEGIN_CFG
 Size
    4
 Supercell
         3.610000      0.000000      0.000000
         0.000000      3.610000      0.000000
         0.000000      0.000000      3.610000
 AtomData:  id type       cartes_x      cartes_y      cartes_z           fx          fy          fz
             1    0       0.120780     -0.259014      0.052257    -0.726538   -0.280977   -0.487357
             2    0       0.053003      1.661203      1.872230    -0.211877   -1.182042   -0.056923
             3    0       1.795048     -0.336094      1.737190     0.870115    0.274898    1.008103
             4    0       1.895135      1.358325      0.050510     0.068300    1.188122   -0.463823
 Energy
          0.266225032353
 PlusStress:  xx          yy          zz          yz          xz          xy
         0.71933     0.40395     0.09759    -0.47444     0.33858     0.56628
END_CFG

BEGIN_CFG
 Size
    4
 Supercell
         3.610000      0.000000      0.000000
         0.000000      3.610000      0.000000
         0.000000      0.000000      3.610000
 AtomData:  id type       cartes_x      cartes_y      cartes_z           fx          fy          fz
             1    0       0.129845     -0.270631      0.063405    -0.875394   -0.266156   -0.689391
             2    0       0.060222      1.652380      1.863280    -0.309698   -1.225421    0.105330
             3    0       1.792349     -0.349281      1.728092     1.005768    0.294734    1.208617
             4    0       1.890956      1.348041      0.061194     0.179323    1.196843   -0.624556
 Energy
          0.303284318338
 PlusStress:  xx          yy          zz          yz          xz          xy
         0.86720     0.53541     0.22025    -0.58467     0.46138     0.68201
END_CFG

BEGIN_CFG
 Size
    4
 Supercell
         3.610000      0.000000      0.000000
         0.000000      3.610000      0.000000
         0.000000      0.000000      3.610000
 AtomData:  id type       cartes_x      cartes_y      cartes_z           fx          fy          fz
             1    0       0.135625     -0.283254      0.071975    -0.962087   -0.240570   -0.838610
             2    0       0.066281      1.638883      1.854705    -0.369178   -1.227226    0.240613
             3    0       1.793433     -0.361352      1.723537     1.075117    0.310101    1.338502
             4    0       1.887440      1.342322      0.069539     0.256147    1.157696   -0.740505
 Energy
          0.320444883270
 PlusStress:  xx          yy          zz          yz          xz          xy
         0.92467     0.60069     0.28976    -0.63932     0.53568     0.72941
END_CFG

BEGIN_CFG
 Size
    4
 Supercell
         3.610000      0.000000      0.000000
         0.000000      3.610000      0.000000
         0.000000      0.000000      3.610000
 AtomData:  id type       cartes_x      cartes_y      cartes_z           fx          fy          fz
             1    0       0.137797     -0.296788      0.077411    -0.971124   -0.206431   -0.916166
             2    0       0.070957      1.620716      1.847014    -0.385401   -1.183181    0.340481
             3    0       1.798557     -0.372253      1.724003     1.062653    0.321242    1.380113
             4    0       1.884874      1.341014      0.075114     0.293872    1.068369   -0.804429
 Energy
          0.310190242840
 PlusStress:  xx          yy          zz          yz          xz          xy
         0.86475     0.57276     0.27929    -0.62762     0.54697     0.70007
END_CFG

BEGIN_CFG
 Size
    4
 Supercell
         3.610000      0.000000      0.000000
         0.000000      3.610000      0.000000
         0.000000      0.000000      3.610000
 AtomData:  id type       cartes_x      cartes_y      cartes_z           fx          fy          fz
             1    0       0.136324     -0.311105      0.079419    -0.901798   -0.167355   -0.915831
             2    0       0.074189      1.598050      1.840586    -0.359634   -1.093882    0.400085
             3    0       1.807674     -0.381942      1.729645     0.967929    0.326610    1.329820
             4    0       1.883403      1.343776      0.077676     0.293503    0.934627   -0.814075
 Energy
          0.271736601141
 PlusStress:  xx          yy          zz          yz          xz          xy
         0.68728     0.44608     0.18340    -0.55345     0.49487     0.60206
END_CFG

BEGIN_CFG
 Size
    4
 Supercell
         3.610000      0.000000      0.000000
         0.000000      3.610000      0.000000
         0.000000      0.000000      3.610000
 AtomData:  id type       cartes_x      cartes_y      cartes_z           fx          fy          fz
             1    0       0.131459     -0.326060      0.077993    -0.768531   -0.127139   -0.845447
             2    0       0.076070      1.571224      1.835653    -0.298977   -0.965058    0.418837
             3    0       1.820438     -0.390399      1.740284     0.806283    0.323309    1.198741
             4    0       1.883030      1.350102      0.077182     0.261224    0.768888   -0.772130
 Energy
          0.211581313287
 PlusStress:  xx          yy          zz          yz          xz          xy
         0.42054     0.23963     0.02015    -0.43433     0.39419     0.45765
END_CFG

BEGIN_CFG
 Size
    4
 Supercell
         3.610000      0.000000      0.000000
         0.000000      3.610000      0.000000
         0.000000      0.000000      3.610000
 AtomData:  id type       cartes_x      cartes_y      cartes_z           fx          fy          fz
             1    0       0.123692     -0.341500      0.073383    -0.594511   -0.088687   -0.722161
             2    0       0.076826      1.540724      1.832292    -0.214224   -0.805574    0.399930
             3    0       1.836248     -0.397633      1.755444     0.602622    0.308198    1.007085
             4    0       1.883637      1.359366      0.073778     0.206112    0.586063   -0.684855
 Energy
          0.141208774384
 PlusStress:  xx          yy          zz          yz          xz          xy
         0.11224    -0.00892    -0.17601    -0.29584     0.26997     0.29695
END_CFG

BEGIN_CFG
 Size
    4
 Supercell
         3.610000      0.000000      0.000000
         0.000000      3.610000      0.000000
         0.000000      0.000000      3.610000
 AtomData:  id type       cartes_x      cartes_y      cartes_z           fx          fy          fz
             1    0       0.113671     -0.357281      0.066042    -0.402689   -0.053454   -0.564890
             2    0       0.076773      1.507151      1.830439    -0.116700   -0.624588    0.349093