BEGIN_CFG
 Size
    27
 Supercell
         0.000000      5.415000      5.415000
         5.415000      0.000000      5.415000
         5.415000      5.415000      0.000000
 AtomData:  id type       cartes_x      cartes_y      cartes_z           fx          fy          fz
             1    0       0.000000      0.000000      0.000000    -1.191214    0.001261   -1.191214
             2    1       1.805000      1.805000      0.000000     0.572621   -0.737015    0.111294
             3    2       3.610000      3.610000      0.000000     0.330478    0.347503    0.071527
             4    2       1.805000      0.000000      1.805000     0.222529    0.041817    0.222529
             5    0       3.610000      1.805000      1.805000     0.249526   -0.592523   -0.862903
             6    1       5.415000      3.610000      1.805000    -0.033870    0.026173   -0.057068
             7    2       3.610000      0.000000      3.610000     0.368260    0.044516    0.368260
             8    2       5.415000      1.805000      3.610000    -0.013021   -0.680591   -0.034890
             9    0       7.220000      3.610000      3.610000    -0.269264    0.863410   -0.622606
            10    1       0.000000      1.805000      1.805000     0.111294   -0.737015    0.572621
            11    2       1.805000      3.610000      1.805000     0.318652    0.671062    0.318652
            12    2       3.610000      5.415000      1.805000    -0.627684   -0.039297   -0.007372
            13    0       1.805000      1.805000      3.610000    -0.862903   -0.592523    0.249526
            14    1       3.610000      3.610000      3.610000    -0.037456    1.302697   -0.037456
            15    2       5.415000      5.415000      3.610000    -0.360447    0.332900   -0.063077
            16    2       3.610000      1.805000      5.415000    -0.034890   -0.680591   -0.013021
            17    0       5.415000      3.610000      5.415000    -0.620618   -0.005512   -0.620618
            18    1       7.220000      5.415000      5.415000     1.257327    0.717640    0.766930
            19    2       0.000000      3.610000      3.610000     0.071527    0.347503    0.330478
            20    2       1.805000      5.415000      3.610000    -0.007372   -0.039297   -0.627684
            21    0       3.610000      7.220000      3.610000     0.890666   -1.820151    0.890666
            22    1       1.805000      3.610000      5.415000    -0.057068    0.026173   -0.033870
            23    2       3.610000      5.415000      5.415000    -0.063077    0.332900   -0.360447
            24    2       5.415000      7.220000      5.415000    -0.263112    0.001541   -0.263112
            25    0       3.610000      3.610000      7.220000    -0.622606    0.863410   -0.269264
            26    1       5.415000      5.415000      7.220000     0.766930    0.717640    1.257327
            27    2       7.220000      7.220000      7.220000    -0.095210   -0.713633   -0.095210
 Energy
          7.364167265679
 PlusStress:  xx          yy          zz          yz          xz          xy
        79.81336    75.50663    79.81336    -0.42011    -4.85618    -0.42011
END_CFG

BEGIN_CFG
 Size
    27
 Supercell
         0.000000      5.415000      5.415000
         5.415000      0.000000      5.415000
         5.415000      5.415000      0.000000
 AtomData:  id type       cartes_x      cartes_y      cartes_z           fx          fy          fz
             1    0       0.002399     -0.010685      0.006978    -1.349742    0.327940   -1.340077
             2    1       1.818698      1.777096     -0.017959     0.120858   -0.397366    0.501321
             3    2       3.612946      3.604940     -0.000163     0.331949    0.330021   -0.024602
             4    2       1.789998      0.015981      1.819493     0.355758   -0.183136    0.181321
             5    0       3.610830      1.816221      1.809274     0.364406   -0.898414   -0.964475
             6    1       5.403032      3.615147      1.791623     0.199963   -0.095011    0.145122
             7    2       3.626591     -0.000818      3.607360     0.240670    0.076392    0.412495
             8    2       5.402661      1.825818      3.607142     0.155760   -0.958805    0.027128
             9    0       7.215437      3.606907      3.615087    -0.332974    0.948079   -0.863844
            10    1       0.005191      1.809909      1.811622    -0.011248   -0.659659    0.319054
            11    2       1.844346      3.603925      1.796348    -0.058736    0.670319    0.323584
            12    2       3.594087      5.426060      1.825400    -0.407472   -0.085615   -0.267997
            13    0       1.803301      1.796010      3.601682    -0.642778   -0.320375    0.663179
            14    1       3.618987      3.621778      3.617496    -0.168901    1.067906   -0.019732
            15    2       5.402279      5.419833      3.611994    -0.260700    0.240188   -0.057145
            16    2       3.613892      1.819467      5.419020    -0.084323   -0.877090   -0.051388
            17    0       5.421595      3.610691      5.417591    -0.583270   -0.140224   -0.395225
            18    1       7.230169      5.395573      5.411422     1.293378    1.100439    0.774204
            19    2      -0.008366      3.599105      3.605658     0.239270    0.412614    0.419604
            20    2       1.832019      5.399260      3.626317    -0.423057   -0.035424   -0.818431
            21    0       3.593255      7.215448      3.612215     1.279548   -1.698790    0.718986
            22    1       1.813072      3.619901      5.425973    -0.281577   -0.343272   -0.240010
            23    2       3.603577      5.407272      5.429832     0.121761    0.406086   -0.326856
            24    2       5.411040      7.196936      5.394003    -0.158516    0.164568   -0.024720
            25    0       3.600173      3.615632      7.221300    -0.411078    0.820467   -0.152775
            26    1       5.425445      5.409869      7.223607     0.817372    0.784763    1.304483
            27    2       7.231133      7.213051      7.228079    -0.346321   -0.656601   -0.243204
 Energy
          7.424290015416
 PlusStress:  xx          yy          zz          yz          xz          xy
        79.98174    75.62472    80.06799    -0.50739    -4.74632    -0.37815
END_CFG

BEGIN_CFG
 Size
    27
 Supercell
         0.000000      5.415000      5.415000
         5.415000      0.000000      5.415000
         5.415000      5.415000      0.000000
 AtomData:  id type       cartes_x      cartes_y      cartes_z           fx          fy          fz
             1    0       0.003141     -0.020974      0.012311    -1.450072    0.646036   -1.453918
             2    1       1.832667      1.748311     -0.034807    -0.358960   -0.018875    0.894910
             3    2       3.617167      3.601132     -0.000407     0.312807    0.278711   -0.146107
             4    2       1.776358      0.031257      1.834681     0.473273   -0.421354    0.101543
             5    0       3.612106      1.826347      1.812368     0.467108   -1.190170   -1.021486
             6    1       5.391508      3.620078      1.778566     0.414270   -0.209375    0.368525
             7    2       3.644103     -0.001343      3.606298     0.096966    0.106144    0.430139
             8    2       5.390914      1.842989      3.604395     0.307269   -1.151683    0.088945
             9    0       7.210470      3.604968      3.619115    -0.372526    0.980487   -1.054429
            10    1       0.010340      1.813349      1.818960    -0.158176   -0.549794    0.045341
            11    2       1.883476      3.600399      1.788942    -0.452916    0.645312    0.322193
            12    2       3.576621      5.436784      1.844772    -0.148151   -0.140793   -0.524930
            13    0       1.800816      1.786635      3.594177    -0.396229   -0.038923    1.047102
            14    1       3.627590      3.635947      3.624943    -0.272560    0.766499   -0.013879
            15    2       5.388571      5.425584      3.613781    -0.130517    0.124191   -0.051663
            16    2       3.617469      1.830599      5.422847    -0.120512   -1.005475   -0.084755
            17    0       5.427477      3.611215      5.419698    -0.531191   -0.243451   -0.153729
            18    1       7.243226      5.378605      5.409580     1.251691    1.415592    0.754274
            19    2      -0.015810      3.589777      3.602921     0.370890    0.451333    0.487199
            20    2       1.857422      5.383374      3.639515    -0.822360   -0.043455   -0.971442
            21    0       3.578073      7.208821      3.615303     1.651278   -1.484502    0.507795
            22    1       1.820510      3.629030      5.436407    -0.490688   -0.676770   -0.418349
            23    2       3.597629      5.401091      5.443423     0.329786    0.449823   -0.265970
            24    2       5.406481      7.174507      5.372914    -0.061258    0.313439    0.221952
            25    0       3.589841      3.622259      7.222416    -0.167011    0.742633   -0.012740
            26    1       5.437722      5.406491      7.230129     0.824439    0.794281    1.271370
            27    2       7.240950      7.203612      7.235231    -0.566653   -0.539860   -0.367889
 Energy
          7.573400005989
 PlusStress:  xx          yy          zz          yz          xz          xy
        80.29508    75.82883    80.47253    -0.53710    -4.60641    -0.42729
END_CFG

BEGIN_CFG
 Size
    27
 Supercell
         0.000000      5.415000      5.415000
         5.415000      0.000000      5.415000
         5.415000      5.415000      0.000000
 AtomData:  id type       cartes_x      cartes_y      cartes_z           fx          fy          fz
             1    0       0.002104     -0.030474      0.015859    -1.488559    0.940770   -1.527229
             2    1       1.845833      1.719491     -0.049660    -0.835409    0.375866    1.266277
             3    2       3.622587      3.598377     -0.001193     0.272223    0.196749   -0.281786
             4    2       1.764528      0.044921      1.850258     0.569714   -0.659315   -0.015578
             5    0       3.613953      1.835021      1.814213     0.549404   -1.455523   -1.033554
             6    1       5.380906      3.624537      1.766328     0.599552   -0.311837    0.602697
             7    2       3.661987     -0.001459      3.606881    -0.058145    0.130991    0.418663
             8    2       5.380332      1.855778      3.601993     0.437289   -1.260202    0.148967
             9    0       7.205053      3.604223      3.621852    -0.385919    0.959148   -1.182258
            10    1       0.015120      1.815566      1.826404    -0.320108   -0.420600   -0.223481
            11    2       1.920887      3.599324      1.782781    -0.839065    0.597641    0.320985
            12    2       3.558589      5.446968      1.862140     0.141240   -0.203861   -0.766893
            13    0       1.797848      1.777221      3.587957    -0.137410    0.241635    1.384265
            14    1       3.635578      3.651831      3.632356    -0.337185    0.407853   -0.020297
            15    2       5.374375      5.431816      3.615383     0.025597   -0.006643   -0.052461
            16    2       3.620590      1.837904      5.426354    -0.142798   -1.062916   -0.110404
            17    0       5.432710      3.611445      5.421616    -0.467644   -0.304091    0.086085
            18    1       7.259071      5.364806      5.409429     1.134014    1.647289    0.705869
            19    2      -0.021833      3.582159      3.602043     0.464448    0.461840    0.526935
            20    2       1.879692      5.367314      3.649011    -1.195824   -0.046926   -1.074442
            21    0       3.564911      7.200382      3.619003     1.977121   -1.192872    0.270412
            22    1       1.826848      3.636638      5.445901    -0.674429   -0.956370   -0.567861
            23    2       3.592950      5.396623      5.456005     0.541297    0.460247   -0.191421
            24    2       5.401696      7.153276      5.352668     0.028623    0.447887    0.470645
            25    0       3.579301      3.629785      7.223519     0.096832    0.633484    0.140333
            26    1       5.451848      5.404887      7.239487     0.786902    0.746297    1.167133
            27    2       7.248620      7.192124      7.240980    -0.741760   -0.366538   -0.461601
 Energy
          7.787393889820
 PlusStress:  xx          yy          zz          yz          xz          xy
        80.70743    76.07958    80.97282    -0.52136    -4.43892    -0.54925
END_CFG

BEGIN_CFG
 Size
    27
 Supercell
         0.000000      5.415000      5.415000
         5.415000      0.000000      5.415000
         5.415000      5.415000      0.000000
 AtomData:  id type       cartes_x      cartes_y      cartes_z           fx          fy          fz
             1    0      -0.000758     -0.038823      0.017535    -1.466323    1.195977   -1.552697
             2    1       1.857131      1.691515     -0.061685    -1.271608    0.760514    1.583534
             3    2       3.629052      3.596362     -0.003039     0.210384    0.089811   -0.415572
             4    2       1.754877      0.056071      1.865780     0.639707   -0.877905   -0.161293
             5    0       3.616473      1.841918      1.814796     0.602402   -1.679565   -1.003129
             6    1       5.371641      3.628294      1.755433     0.748427   -0.397270    0.831393
             7    2       3.679654     -0.001068      3.609068    -0.220109    0.148204    0.375785
             8    2       5.371398      1.863774      3.600163     0.539463   -1.285336    0.206412
             9    0       7.199172      3.604647      3.623140    -0.373509    0.888526   -1.238920
            10    1       0.019165      1.816848      1.833353    -0.480445   -0.286727   -0.463228
            11    2       1.955109      3.600517      1.777860    -1.190242    0.524837    0.322457
            12    2       3.541090      5.456377      1.876588     0.447020   -0.270940   -0.978164
            13    0       1.794716      1.768110      3.583438     0.117914    0.510095    1.657231
            14    1       3.642803      3.668624      3.639720    -0.361013    0.008686   -0.037890
            15    2       5.360285      5.438034      3.616799     0.201828   -0.141591   -0.063314
            16    2       3.623168      1.841164      5.429440    -0.151102   -1.049505   -0.126429
            17    0       5.437369      3.611311      5.423637    -0.394453   -0.318909    0.307957
            18    1       7.277435      5.354697      5.410860     0.946502    1.783919    0.626874
            19    2      -0.026079      3.576290      3.603169     0.522217    0.443680    0.533525
            20    2       1.897422      5.351067      3.654412    -1.522320   -0.031496   -1.114369
            21    0       3.554167      7.190489      3.623022     2.222984   -0.849806    0.026517
            22    1       1.831674      3.642097      5.454123    -0.821878   -1.168651   -0.689259
            23    2       3.590346      5.393906      5.467862     0.731015    0.436437   -0.119398
            24    2       5.397026      7.133751      5.334207     0.113383    0.568210    0.713349
            25    0       3.568876      3.638078      7.224797     0.366386    0.498236    0.293639
            26    1       5.467736      5.404952      7.251447     0.702727    0.643724    1.003643
            27    2       7.253482      7.179245      7.244972    -0.859356   -0.143155   -0.518654
 Energy
          8.029610805773
 PlusStress:  xx          yy          zz          yz          xz          xy
        81.15067    76.31119    81.49835    -0.48123    -4.23910    -0.69716
END_CFG

BEGIN_CFG
 Size
    27
 Supercell
         0.000000      5.415000      5.415000
         5.415000      0.000000      5.415000
         5.415000      5.415000      0.000000
 AtomData:  id type       cartes_x      cartes_y      cartes_z           fx          fy          fz
             1    0      -0.005418     -0.045708      0.017307    -1.388782    1.394856   -1.522554
             2    1       1.865586      1.665239     -0.070170    -1.624526    1.106159    1.812269
             3    2       3.636325      3.594680     -0.006451     0.128835   -0.034050   -0.528457
             4    2       1.747670      0.063877      1.880694     0.678238   -1.053303   -0.320215
             5    0       3.619732      1.846760      1.814156     0.618278   -1.846519   -0.934767
             6    1       5.364043      3.631159      1.746391     0.855137   -0.460754    1.033919
             7    2       3.696487     -0.000104      3.612697    -0.384327    0.155393    0.299862
             8    2       5.364494      1.866879      3.599123     0.611542   -1.233570    0.260580
             9    0       7.192844      3.606153      3.622911    -0.337579    0.777351   -1.220365
            10    1       0.022119      1.817492      1.839274    -0.618517   -0.163043   -0.652171
            11    2       1.984806      3.603700      1.774183    -1.478366    0.422633    0.323448
            12    2       3.525288      5.464766      1.887316     0.750184   -0.335997   -1.138717
            13    0       1.791734      1.759631      3.580953     0.353103    0.753404    1.847812
            14    1       3.649214      3.685434      3.646998    -0.352753   -0.405808   -0.064493
            15    2       5.346969      5.443733      3.617992     0.391006   -0.268171   -0.084288
            16    2       3.625168      1.840429      5.432042    -0.145535   -0.967603   -0.132100
            17    0       5.441542      3.610793      5.426036    -0.314797   -0.290108    0.498459
            18    1       7.297895      5.348586      5.413695     0.698757    1.819055    0.515955
            19    2      -0.028335      3.572096      3.606319     0.546837    0.397985    0.505570
            20    2       1.909378      5.334696      3.655568    -1.774614    0.016594   -1.081290
            21    0       3.546146      7.179557      3.627058     2.355400   -0.489205   -0.199255
            22    1       1.834662      3.644933      5.460801    -0.921976   -1.304893   -0.782731
            23    2       3.590539      5.392852      5.479268     0.872703    0.382038   -0.066043
            24    2       5.392792      7.116382      5.318447     0.194936    0.673317    0.939038
            25    0       3.558896      3.646974      7.226436     0.627853    0.343153    0.433409
            26    1       5.485197      5.406457      7.265638     0.568078    0.491746    0.792854
            27    2       7.255094      7.165820      7.246992    -0.909114    0.119338   -0.535727
 Energy
          8.256141269311
 PlusStress:  xx          yy          zz          yz          xz          xy
        81.54532    76.45163    81.96088    -0.43996    -3.99026    -0.81410
END_CFG

BEGIN_CFG
 Size
    27
 Supercell
         0.000000      5.415000      5.415000
         5.415000      0.000000      5.415000
         5.415000      5.415000      0.000000
 AtomData:  id type       cartes_x      cartes_y      cartes_z           fx          fy          fz
             1    0      -0.011779     -0.050883      0.015212    -1.264951    1.521586   -1.430402
             2    1       1.870408      1.641432     -0.074601    -1.854878    1.390180    1.922883
             3    2       3.644094      3.592863     -0.011862     0.030890   -0.164659   -0.601621
             4    2       1.743053      0.067675      1.894400     0.681395   -1.160135   -0.473411
             5    0       3.623749      1.849342      1.812376     0.592519   -1.942913   -0.834181
             6    1       5.358349      3.632990      1.739656     0.914497   -0.497315    1.188570
             7    2       3.711865      0.001462      3.617482    -0.545962    0.150769    0.190655
             8    2       5.359887      1.865286      3.599078     0.653341   -1.114399    0.310189
             9    0       7.186114      3.608609      3.621186    -0.281565    0.636194   -1.127169
            10    1       0.023674      1.817775      1.843746    -0.713947   -0.062731   -0.772448
            11    2       2.008881      3.608486      1.771750    -1.681528    0.288134    0.319751
            12    2       3.512334      5.471892      1.893718     1.027555   -0.392218   -1.226973
            13    0       1.789191      1.752080      3.580738     0.552022    0.957166    1.938337
            14    1       3.654830      3.701334      3.654131    -0.329932   -0.803210   -0.097454
            15    2       5.335141      5.448432      3.618887     0.584488   -0.372991   -0.110841
            16    2       3.626609      1.836009      5.434139    -0.126174   -0.821431   -0.127988
            17    0       5.445328      3.609928      5.429047    -0.229650   -0.227742    0.647946
            18    1       7.319896      5.346556      5.417685     0.402411    1.751973    0.374400
            19    2      -0.028508      3.569406      3.611381     0.542573    0.327314    0.442786
            20    2       1.914608      5.318392      3.652606    -1.919962    0.103578   -0.971694
            21    0       3.541012      7.168025      3.630835     2.350399   -0.148022   -0.381825
            22    1       1.835588      3.644840      5.465726    -0.965645   -1.361443   -0.846747
            23    2       3.594070      5.393253      5.490426     0.944761    0.305765   -0.044262
            24    2       5.389299      7.101562      5.306239     0.273013    0.759383    1.132690
            25    0       3.549681      3.656287      7.228605     0.869158    0.174755    0.546626
            26    1       5.503926      5.409062      7.281585     0.377615    0.297838    0.544376
            27    2       7.253271      7.152840      7.246977    -0.882443    0.404573   -0.512194
 Energy
          8.424988539646
 PlusStress:  xx          yy          zz          yz          xz          xy
        81.83270    76.44527    82.28448    -0.41849    -3.68052    -0.84608
END_CFG

BEGIN_CFG
 Size
    27
 Supercell
         0.000000      5.415000      5.415000
         5.415000      0.000000      5.415000
         5.415000      5.415000      0.000000
 AtomData:  id type       cartes_x      cartes_y      cartes_z           fx          fy          fz
             1    0      -0.019692     -0.054192      0.011363    -1.105268    1.563678   -1.274776
             2    1       1.871081      1.620725     -0.074728    -1.931161    1.596224    1.900403
             3    2       3.651987      3.590418     -0.019551    -0.078386   -0.290693   -0.620933
             4    2       1.741035      0.067062      1.906318     0.647557   -1.177002   -0.603249
             5    0       3.628494      1.849542      1.809580     0.525873   -1.960928   -0.707549
             6    1       5.354690      3.633709      1.735577     0.922705   -0.503983    1.276372
             7    2       3.725177      0.003609      3.623011    -0.699381    0.133402    0.050407
             8    2       5.357733      1.859442      3.600214     0.666092   -0.939840    0.352789
             9    0       7.179050      3.611844      3.618078    -0.209023    0.475263   -0.964488
            10    1       0.023618      1.817918      1.846499    -0.752379    0.004356   -0.812597
            11    2       2.026560      3.614367      1.770546    -1.785657    0.123521    0.306258
            12    2       3.503281      5.477544      1.895463     1.253546   -0.433956   -1.223662
            13    0       1.787330      1.745705      3.582903     0.701470    1.107814    1.915580
            14    1       3.659704      3.715439      3.661046    -0.314203   -1.148201   -0.134398
            15    2       5.325531      5.451735      3.619384     0.770878   -0.444019   -0.135172
            16    2       3.627561      1.828459      5.435744    -0.092949   -0.616940   -0.115711
            17    0       5.448829      3.608789      5.432855    -0.143112   -0.141679    0.750571
            18    1       7.342775      5.348459      5.422514     0.070824    1.587310    0.208992
            19    2      -0.026614      3.567951      3.618111     0.512601    0.235745    0.347533
            20    2       1.912562      5.302489      3.645947    -1.925509    0.225180   -0.789162
            21    0       3.538762      7.156304      3.634131     2.201928    0.140831   -0.501945
            22    1       1.834358      3.641693      5.468755    -0.948757   -1.339815   -0.877596
            23    2       3.601210      5.394818      5.501420     0.935440    0.219582   -0.060932
            24    2       5.386841      7.089612      5.298315     0.346288    0.821021    1.278677
            25    0       3.541528      3.665815      7.231441     1.080919   -0.001011    0.622792
            26    1       5.523496      5.412332      7.298731     0.125797    0.072569    0.263854
            27    2       7.248115      7.141384      7.245016    -0.776132    0.691570   -0.452061
 Energy
          8.507355493573
 PlusStress:  xx          yy          zz          yz          xz          xy
        81.97050    76.25741    82.42820    -0.43106    -3.30165    -0.73874
END_CFG

BEGIN_CFG
 Size
    27
 Supercell
         0.000000      5.415000      5.415000
         5.415000      0.000000      5.415000
         5.415000      5.415000      0.000000
 AtomData:  id type       cartes_x      cartes_y      cartes_z           fx          fy          fz
             1    0      -0.028960     -0.055580      0.005950    -0.921252    1.513889   -1.060353
             2    1       1.867434      1.603577     -0.070598    -1.840411    1.718469    1.749922
             3    2       3.659586      3.586871     -0.029592    -0.192034   -0.399591   -0.579332
             4    2       1.741485      0.061977      1.915956     0.578371   -1.092012   -0.698058
             5    0       3.633886      1.847338      1.805924     0.424404   -1.900534   -0.560549
             6    1       5.353085      3.633304      1.734352     0.878176   -0.481176    1.284596
             7    2       3.735844      0.006269      3.628753    -0.837967    0.103524   -0.115002
             8    2       5.358081      1.850005      3.602692     0.651692   -0.723548    0.384583
             9    0       7.171739      3.615665      3.613786    -0.122837    0.302669   -0.741318
            10    1       0.021870      1.818071      1.847443    -0.728365    0.033819   -0.769614
            11    2       2.037448      3.620719      1.770515    -1.786696   -0.062041    0.279529
            12    2       3.498988      5.481558      1.892564     1.405275   -0.459955   -1.119578
            13    0       1.786334      1.740688      3.587419     0.793686    1.196138    1.775085
            14    1       3.663875      3.726982      3.667661    -0.324371   -1.409670   -0.173599
            15    2       5.318842      5.453368      3.619392     0.936472   -0.472910   -0.147814
            16    2       3.628152      1.818553      5.436905    -0.045958   -0.361745   -0.097817
            17    0       5.452150      3.607484      5.437588    -0.060647   -0.041147    0.803679
            18    1       7.365793      5.353926      5.427813    -0.282238    1.334966    0.032545
            19    2      -0.022769      3.567388      3.626142     0.458539    0.128530    0.224887
            20    2       1.903216      5.287456      3.636285    -1.765419    0.367438   -0.541189
            21    0       3.539217      7.144744      3.636801     1.925755    0.354556   -0.550964
            22    1       1.831011      3.635542      5.469819    -0.872891   -1.245630   -0.870821
            23    2       3.611923      5.397218      5.512186     0.845312    0.135230   -0.115983
            24    2       5.385694      7.080761      5.295227     0.411427    0.852602    1.362687
            25    0       3.534698      3.675349      7.235034     1.257150   -0.179254    0.654882
            26    1       5.543343      5.415765      7.316447    -0.190527   -0.168930   -0.047592
            27    2       7.240025      7.132538      7.241335    -0.594646    0.956315   -0.362811
 Energy
          8.496864414025
 PlusStress:  xx          yy          zz          yz          xz          xy
        81.94555    75.89146    82.40095    -0.47982    -2.85733    -0.46379
END_CFG

BEGIN_CFG
 Size
    27
 Supercell
         0.000000      5.415000      5.415000
         5.415000      0.000000      5.415000
         5.415000      5.415000      0.000000
 AtomData:  id type       cartes_x      cartes_y      cartes_z           fx          fy          fz
             1    0      -0.039360     -0.055110     -0.000766    -0.724268    1.371781   -0.799323
             2    1       1.859672      1.590259     -0.062548    -1.590797    1.762232    1.494411
             3    2       3.666460      3.581812     -0.041828    -0.302480   -0.479623   -0.478785
             4    2       1.744137      0.052744      1.922958     0.478920   -0.906783   -0.755062
             5    0       3.639797      1.842801      1.801586     0.298124   -1.769298   -0.398019
             6    1       5.353433      3.631828      1.736003     0.782139   -0.432581    1.209432
             7    2       3.743341      0.009325      3.634082    -0.953722    0.063004   -0.295104
             8    2       5.360876      1.837794      3.606633     0.612092   -0.480300    0.400373
             9    0       7.164284      3.619865      3.608580    -0.024648    0.124217   -0.469621
            10    1       0.018486      1.818298      1.846672    -0.647811    0.027179   -0.647620
            11    2       2.041543      3.626838      1.771555    -1.690301   -0.253264    0.239127
            12    2       3.500031      5.483831      1.885411     1.466784   -0.474125   -0.919875