BEGIN_CFG
 Size
    32
 Supercell
         7.220000      0.000000      0.000000
         0.000000      7.220000      0.000000
         0.000000      0.000000      7.220000
 AtomData:  id type       cartes_x      cartes_y      cartes_z           fx          fy          fz
             1    0       0.000000      0.000000      0.000000    -0.000000   -0.000000   -0.000000
             2    0       0.000000      1.805000      1.805000    -0.000000    0.000000    0.000000
             3    0       1.805000      0.000000      1.805000     0.000000   -0.000000    0.000000
             4    0       1.805000      1.805000      0.000000     0.000000    0.000000   -0.000000
             5    0       0.000000      0.000000      3.610000    -0.000000   -0.000000   -0.000000
             6    0       0.000000      1.805000      5.415000    -0.000000    0.000000    0.000000
             7    0       1.805000      0.000000      5.415000     0.000000   -0.000000    0.000000
             8    0       1.805000      1.805000      3.610000     0.000000    0.000000   -0.000000
             9    0       0.000000      3.610000      0.000000    -0.000000    0.000000   -0.000000
            10    0       0.000000      5.415000      1.805000    -0.000000    0.000000    0.000000
            11    0       1.805000      3.610000      1.805000     0.000000    0.000000    0.000000
            12    0       1.805000      5.415000      0.000000     0.000000    0.000000   -0.000000
            13    0       0.000000      3.610000      3.610000    -0.000000    0.000000   -0.000000
            14    0       0.000000      5.415000      5.415000    -0.000000   -0.000000    0.000000
            15    0       1.805000      3.610000      5.415000     0.000000    0.000000    0.000000
            16    0       1.805000      5.415000      3.610000     0.000000    0.000000   -0.000000
            17    0       3.610000      0.000000      0.000000    -0.000000   -0.000000   -0.000000
            18    0       3.610000      1.805000      1.805000     0.000000    0.000000    0.000000
            19    0       5.415000      0.000000      1.805000     0.000000   -0.000000    0.000000
            20    0       5.415000      1.805000      0.000000     0.000000    0.000000   -0.000000
            21    0       3.610000      0.000000      3.610000    -0.000000   -0.000000   -0.000000
            22    0       3.610000      1.805000      5.415000     0.000000    0.000000    0.000000
            23    0       5.415000      0.000000      5.415000     0.000000   -0.000000    0.000000
            24    0       5.415000      1.805000      3.610000     0.000000    0.000000   -0.000000
            25    0       3.610000      3.610000      0.000000     0.000000   -0.000000   -0.000000
            26    0       3.610000      5.415000      1.805000    -0.000000    0.000000    0.000000
            27    0       5.415000      3.610000      1.805000     0.000000    0.000000    0.000000
            28    0       5.415000      5.415000      0.000000     0.000000    0.000000   -0.000000
            29    0       3.610000      3.610000      3.610000     0.000000   -0.000000    0.000000
            30    0       3.610000      5.415000      5.415000    -0.000000   -0.000000    0.000000
            31    0       5.415000      3.610000      5.415000     0.000000    0.000000    0.000000
            32    0       5.415000      5.415000      3.610000     0.000000   -0.000000   -0.000000
 Energy
         -0.183222692534
 PlusStress:  xx          yy          zz          yz          xz          xy
        -4.85016    -4.85016    -4.85016    -0.00000    -0.00000    -0.00000
END_CFG

BEGIN_CFG
 Size
    32
 Supercell
         7.220000      0.000000      0.000000
         0.000000      7.220000      0.000000
         0.000000      0.000000      7.220000
 AtomData:  id type       cartes_x      cartes_y      cartes_z           fx          fy          fz
             1    0       0.005511     -0.018809      0.013573    -0.029873    0.090720   -0.171522
             2    0       0.017011      1.769714      1.781449    -0.083645    0.208427    0.210371
             3    0       1.807312     -0.005720      1.804696     0.055939    0.035548    0.032358
             4    0       1.789572      1.820905      0.014067     0.112828   -0.173285   -0.197745
             5    0       0.001194      0.020387      3.618455    -0.028403   -0.182341   -0.033474
             6    0      -0.015541      1.811669      5.397658     0.093339   -0.098925    0.173819
             7    0       1.820888     -0.000903      5.411657    -0.114519    0.148577    0.133035
             8    0       1.792685      1.827111      3.607205     0.128313   -0.147499    0.013217
             9    0      -0.007747      3.603631      0.009627     0.051272    0.099834   -0.010420
            10    0       0.006609      5.422465      1.812792    -0.024711   -0.091860    0.012025
            11    0       1.843734      3.602650      1.795736    -0.305112    0.071100    0.081576
            12    0       1.790282      5.426141      0.020419     0.143958   -0.090059   -0.115294
            13    0      -0.002061      3.594805      3.595088     0.078263    0.095219   -0.008927
            14    0       0.011767      5.428443      5.424823    -0.099283   -0.097288   -0.120954
            15    0       1.792964      3.614199      5.417110     0.023056    0.033062    0.023055
            16    0       1.808955      5.430761      3.614044    -0.107857   -0.157610   -0.041047
            17    0       3.622279      0.001222      0.005229    -0.147281    0.003983   -0.030926
            18    0       3.621417      1.778646      1.799218    -0.067534    0.160350    0.021529
            19    0       5.406493     -0.011555      1.800024     0.079750   -0.061465    0.084103
            20    0       5.442038      1.789341      0.017512    -0.162308    0.121492   -0.121206
            21    0       3.579564     -0.006057      3.612944     0.245452    0.058461    0.009430
            22    0       3.620602      1.817863      5.429348    -0.039423   -0.035870   -0.066563
            23    0       5.408693     -0.008362      5.430517     0.035507    0.020077   -0.170857
            24    0       5.411540      1.781928      3.589503    -0.065476    0.111670    0.097806
            25    0       3.593371      3.618992      0.002576     0.196933   -0.091118   -0.046897
            26    0       3.622488      5.407273      1.807867    -0.085530    0.076620   -0.048067
            27    0       5.426314      3.604405      1.813261    -0.087496   -0.090532   -0.119457
            28    0       5.403028      5.408434     -0.006904     0.116324   -0.045644    0.078476
            29    0       3.588372      3.618807      3.601510     0.167612   -0.116161    0.117068
            30    0       3.610226      5.423695      5.423076    -0.017121   -0.120484   -0.053736
            31    0       5.427034      3.608219      5.407344    -0.097188    0.008630    0.012483
            32    0       5.413558      5.384483      3.583828     0.034215    0.256369    0.256739
 Energy
         -0.115604528393
 PlusStress:  xx          yy          zz          yz          xz          xy
        -4.59461    -4.61173    -4.58271     0.04592    -0.00023    -0.03200
END_CFG

BEGIN_CFG
 Size
    32
 Supercell
         7.220000      0.000000      0.000000
         0.000000      7.220000      0.000000
         0.000000      0.000000      7.220000
 AtomData:  id type       cartes_x      cartes_y      cartes_z           fx          fy          fz
             1    0       0.010913     -0.037275      0.026492    -0.077660    0.170292   -0.336617
             2    0       0.033703      1.735217      1.758693    -0.182407    0.408189    0.450887
             3    0       1.809838     -0.011305      1.804515     0.116260    0.069795    0.064035
             4    0       1.774573      1.836155      0.027383     0.242355   -0.334370   -0.403508
             5    0       0.002280      0.040084      3.626787    -0.035592   -0.359847   -0.070155
             6    0      -0.030732      1.817964      5.380971     0.176336   -0.177801    0.337403
             7    0       1.836343     -0.001241      5.408817    -0.232823    0.282652    0.268895
             8    0       1.780853      1.848668      3.604462     0.251713   -0.300366    0.022654
             9    0      -0.015299      3.597638      0.019211     0.098941    0.199249   -0.024967
            10    0       0.013123      5.429580      1.820631    -0.057186   -0.176623    0.034910
            11    0       1.881313      3.595569      1.786782    -0.606123    0.136251    0.162247
            12    0       1.776107      5.436939      0.040400     0.297055   -0.195272   -0.231161
            13    0      -0.003822      3.579971      3.580145     0.141186    0.185965   -0.013749
            14    0       0.023154      5.441518      5.434191    -0.188525   -0.184293   -0.225999
            15    0       1.781014      3.618525      5.419306     0.045214    0.059153    0.043479
            16    0       1.812503      5.445924      3.617936    -0.218190   -0.317155   -0.076325
            17    0       3.634001      0.002460      0.010337    -0.287163   -0.001714   -0.068329
            18    0       3.632582      1.752897      1.793520    -0.145887    0.323473    0.041618
            19    0       5.398283     -0.023343      1.795369     0.169824   -0.125512    0.161117
            20    0       5.468462      1.774145      0.034564    -0.317363    0.218598   -0.246352
            21    0       3.550056     -0.011892      3.615927     0.493533    0.135501    0.002020
            22    0       3.631054      1.830593      5.443447    -0.073700   -0.073496   -0.127426
            23    0       5.402519     -0.016649      5.445387     0.079562    0.058329   -0.321018
            24    0       5.407833      1.759278      3.569379    -0.120280    0.217703    0.197506
            25    0       3.577488      3.627639      0.004971     0.379993   -0.161434   -0.114716
            26    0       3.634652      5.399836      1.810552    -0.175253    0.153977   -0.099584
            27    0       5.437299      3.598467      1.821070    -0.178571   -0.186620   -0.248743
            28    0       5.391499      5.401692     -0.013514     0.229932   -0.090367    0.152688
            29    0       3.567380      3.627172      3.593466     0.332444   -0.216554    0.247402
            30    0       3.610389      5.431935      5.430948    -0.039547   -0.237188   -0.109083
            31    0       5.438695      3.606470      5.399735    -0.183758    0.031111    0.024286
            32    0       5.412248      5.354932      3.558626     0.065683    0.488374    0.506585
 Energy
          0.079398422885
 PlusStress:  xx          yy          zz          yz          xz          xy
        -3.85954    -3.93477    -3.81056     0.17878    -0.00243    -0.11811
END_CFG

BEGIN_CFG
 Size
    32
 Supercell
         7.220000      0.000000      0.000000
         0.000000      7.220000      0.000000
         0.000000      0.000000      7.220000
 AtomData:  id type       cartes_x      cartes_y      cartes_z           fx          fy          fz
             1    0       0.016029     -0.055095      0.038125    -0.140724    0.239454   -0.489759
             2    0       0.049697      1.702272      1.737646    -0.291396    0.594221    0.710781
             3    0       1.812808     -0.016626      1.804577     0.176556    0.101264    0.093613
             4    0       1.760496      1.850138      0.039165     0.382546   -0.475332   -0.607884
             5    0       0.003227      0.058418      3.634860    -0.024254   -0.526703   -0.108613
             6    0      -0.045261      1.823584      5.365560     0.248358   -0.236611    0.485945
             7    0       1.850920     -0.000503      5.406996    -0.350763    0.396480    0.400128
             8    0       1.769972      1.869095      3.601806     0.366254   -0.453733    0.030321
             9    0      -0.022477      3.592397      0.028691     0.142875    0.292724   -0.043753
            10    0       0.019418      5.436023      1.828604    -0.095294   -0.252061    0.064401
            11    0       1.916594      3.589008      1.778449    -0.894366    0.190928    0.239198
            12    0       1.763053      5.446996      0.059501     0.452482   -0.311893   -0.344736
            13    0      -0.005041      3.565842      3.565154     0.185715    0.270477   -0.010991
            14    0       0.033822      5.453896      5.442706    -0.266156   -0.260371   -0.315085
            15    0       1.769236      3.623079      5.421664     0.066630    0.076294    0.060277
            16    0       1.815228      5.459886      3.621546    -0.325223   -0.472564   -0.103441
            17    0       3.644635      0.003692      0.015179    -0.412673   -0.016512   -0.111810
            18    0       3.643200      1.728370      1.787983    -0.231497    0.484892    0.059505
            19    0       5.390706     -0.035610      1.791332     0.265816   -0.185741    0.226774
            20    0       5.493689      1.759785      0.050677    -0.464213    0.292639   -0.370016
            21    0       3.522413     -0.017214      3.618926     0.737590    0.224242   -0.018841
            22    0       3.641225      1.843050      5.457068    -0.103194   -0.112886   -0.182452
            23    0       5.396643     -0.024719      5.459040     0.127812    0.108375   -0.449188
            24    0       5.403671      1.737449      3.550006    -0.161629    0.317498    0.297988
            25    0       3.563049      3.635673      0.006924     0.547041   -0.213718   -0.199931
            26    0       3.646151      5.392985      1.812859    -0.265971    0.226121   -0.149901
            27    0       5.447610      3.591822      1.827936    -0.271307   -0.281646   -0.380373
            28    0       5.380845      5.394602     -0.019549     0.336668   -0.130034    0.219619
            29    0       3.547649      3.634711      3.586363     0.491154   -0.297757    0.384870
            30    0       3.610406      5.439280      5.438408    -0.066830   -0.343983   -0.164128
            31    0       5.449652      3.604836      5.392216    -0.257249    0.063894    0.035709
            32    0       5.411191      5.327220      3.535341     0.095244    0.692042    0.741769
 Energy
          0.377726815307
 PlusStress:  xx          yy          zz          yz          xz          xy
        -2.76157    -2.93390    -2.64739     0.37675    -0.00692    -0.23371
END_CFG

BEGIN_CFG
 Size
    32
 Supercell
         7.220000      0.000000      0.000000
         0.000000      7.220000      0.000000
         0.000000      0.000000      7.220000
 AtomData:  id type       cartes_x      cartes_y      cartes_z           fx          fy          fz
             1    0       0.020623     -0.072007      0.047884    -0.212003    0.299477   -0.622691
             2    0       0.064579      1.671592      1.719298    -0.401819    0.761621    0.970952
             3    0       1.816455     -0.021564      1.804991     0.230746    0.128341    0.118440
             4    0       1.747874      1.862317      0.048634     0.521716   -0.589706   -0.796838
             5    0       0.004075      0.074757      3.642531     0.000755   -0.677092   -0.146363
             6    0      -0.058856      1.828305      5.351986     0.309904   -0.276290    0.614085
             7    0       1.864174      0.001744      5.406694    -0.462567    0.484965    0.517257
             8    0       1.760479      1.887812      3.599270     0.469886   -0.602938    0.039445
             9    0      -0.029115      3.588260      0.037995     0.183896    0.374195   -0.066483
            10    0       0.025347      5.441503      1.836821    -0.135349   -0.315625    0.093918
            11    0       1.948479      3.583175      1.771031    -1.158889    0.230522    0.308186
            12    0       1.751714      5.455870      0.077288     0.602373   -0.434035   -0.452607
            13    0      -0.005542      3.552738      3.550125     0.210819    0.346229    0.001891
            14    0       0.043476      5.465287      5.450035    -0.331365   -0.326257   -0.389507
            15    0       1.757707      3.627929      5.424246     0.087241    0.083074    0.072186
            16    0       1.816724      5.472053      3.624773    -0.420386   -0.614832   -0.120215
            17    0       3.653703      0.004863      0.019588    -0.516832   -0.039206   -0.159438
            18    0       3.652950      1.705674      1.782677    -0.318885    0.638691    0.073587
            19    0       5.384124     -0.048583      1.788163     0.361913   -0.233371    0.276939
            20    0       5.517156      1.746549      0.065379    -0.602127    0.346378   -0.485895
            21    0       3.497559     -0.021690      3.621866     0.966087    0.314434   -0.047208
            22    0       3.651000      1.855090      5.470010    -0.128837   -0.153942   -0.231768
            23    0       5.391246     -0.032387      5.470995     0.175333    0.162672   -0.554448
            24    0       5.398900      1.716819      3.531762    -0.186955    0.409444    0.397479
            25    0       3.550692      3.642894      0.008109     0.693118   -0.251083   -0.293480
            26    0       3.656640      5.386997      1.814594    -0.353569    0.286259   -0.193209
            27    0       5.456898      3.584109      1.833359    -0.363669   -0.365819   -0.502906
            28    0       5.371474      5.387015     -0.024758     0.432404   -0.160021    0.276038
            29    0       3.529782      3.641113      3.580722     0.639034   -0.357710    0.520010
            30    0       3.610177      5.445326      5.445248    -0.097645   -0.434153   -0.216473
            31    0       5.459622      3.603439      5.384832    -0.315580    0.102488    0.046863
            32    0       5.410494      5.302122      3.514867     0.121251    0.863291    0.952252
 Energy
          0.740225997737
 PlusStress:  xx          yy          zz          yz          xz          xy
        -1.47476    -1.76661    -1.27639     0.60958    -0.00836    -0.36063
END_CFG

BEGIN_CFG
 Size
    32
 Supercell
         7.220000      0.000000      0.000000
         0.000000      7.220000      0.000000
         0.000000      0.000000      7.220000
 AtomData:  id type       cartes_x      cartes_y      cartes_z           fx          fy          fz
             1    0       0.024425     -0.087779      0.055255    -0.283330    0.353293   -0.725490
             2    0       0.077924      1.643817      1.704640    -0.501863    0.903834    1.203135
             3    0       1.820985     -0.026016      1.805850     0.271394    0.149387    0.135064
             4    0       1.737237      1.872249      0.055064     0.644628   -0.673187   -0.953350
             5    0       0.004913      0.088534      3.649656     0.033183   -0.805161   -0.180118
             6    0      -0.071287      1.831974      5.340738     0.361419   -0.298491    0.715558
             7    0       1.875686      0.005841      5.408360    -0.560592    0.543547    0.608920
             8    0       1.752773      1.904251      3.596892     0.561493   -0.740774    0.053620
             9    0      -0.035056      3.585538      0.047034     0.223484    0.437436   -0.092014
            10    0       0.030760      5.445778      1.845392    -0.172848   -0.364563    0.115122
            11    0       1.975955      3.578226      1.764798    -1.384603    0.252304    0.363321
            12    0       1.742663      5.463099      0.093340     0.735985   -0.551349   -0.550659
            13    0      -0.005222      3.540942      3.535105     0.218030    0.408999    0.025839
            14    0       0.051867      5.475443      5.455902    -0.384028   -0.381370   -0.449062
            15    0       1.746506      3.633104      5.427096     0.107159    0.078699    0.077905
            16    0       1.816633      5.481882      3.627553    -0.493555   -0.733390   -0.124936
            17    0       3.660805      0.005886      0.023378    -0.592983   -0.068052   -0.208081
            18    0       3.661501      1.685392      1.777659    -0.400333    0.778993    0.083540
            19    0       5.378899     -0.062448      1.786054     0.449392   -0.259188    0.308132
            20    0       5.538340      1.734642      0.078219    -0.727360    0.380006   -0.588294
            21    0       3.476357     -0.024981      3.624646     1.163291    0.393784   -0.073644
            22    0       3.660283      1.866561      5.482091    -0.151450   -0.196616   -0.275733
            23    0       5.386505     -0.039454      5.480860     0.216652    0.213467   -0.635844
            24    0       5.393425      1.697736      3.515023    -0.193855    0.491981    0.494294
            25    0       3.540980      3.649156      0.008164     0.811871   -0.278135   -0.381259
            26    0       3.665784      5.382107      1.815590    -0.433312    0.327299   -0.223500
            27    0       5.464817      3.575007      1.836874    -0.453038   -0.427091   -0.602133
            28    0       5.363752      5.378816     -0.028927     0.512867   -0.175688    0.318612
            29    0       3.514338      3.646151      3.577056     0.769797   -0.395675    0.640658
            30    0       3.609587      5.449733      5.451269    -0.129746   -0.502283   -0.264887
            31    0       5.468381      3.602423      5.377624    -0.357429    0.141798    0.058066
            32    0       5.410247      5.280295      3.498012     0.139677    0.996187    1.127216
 Energy
          1.116688892328
 PlusStress:  xx          yy          zz          yz          xz          xy
        -0.18882    -0.60444     0.11024     0.84569     0.00039    -0.48481
END_CFG

BEGIN_CFG
 Size
    32
 Supercell
         7.220000      0.000000      0.000000
         0.000000      7.220000      0.000000
         0.000000      0.000000      7.220000
 AtomData:  id type       cartes_x      cartes_y      cartes_z           fx          fy          fz
             1    0       0.027162     -0.102201      0.059838    -0.343791    0.402026   -0.786832
             2    0       0.089350      1.619495      1.694561    -0.580107    1.015186    1.377635
             3    0       1.826554     -0.029900      1.807212     0.290963    0.162859    0.139998
             4    0       1.729054      1.879609      0.057856     0.734774   -0.724424   -1.059581
             5    0       0.005859      0.099265      3.656109     0.066561   -0.904959   -0.206346
             6    0      -0.082358      1.834503      5.332204     0.404199   -0.305336    0.785522
             7    0       1.885088      0.012012      5.412347    -0.636635    0.568619    0.663466
             8    0       1.747205      1.917883      3.594728     0.636105   -0.860740    0.074876
             9    0      -0.040150      3.584470      0.055717     0.263595    0.476719   -0.118571
            10    0       0.035515      5.448656      1.854393    -0.202477   -0.396591    0.119158
            11    0       1.998157      3.574253      1.759964    -1.556834    0.257222    0.398343
            12    0       1.736416      5.468242      0.107278     0.840925   -0.651506   -0.633080
            13    0      -0.004050      3.530695      3.520181     0.209600    0.456081    0.059126
            14    0       0.058796      5.484157      5.460087    -0.424457   -0.425854   -0.493659
            15    0       1.735706      3.638589      5.430235     0.126614    0.062992    0.076375
            16    0       1.814676      5.488916      3.629869    -0.533414   -0.816558   -0.117097
            17    0       3.665647      0.006649      0.026364    -0.635619   -0.100625   -0.253475
            18    0       3.668543      1.668060      1.772967    -0.469075    0.898772    0.087151
            19    0       5.375361     -0.077309      1.785125     0.520371   -0.256096    0.318341
            20    0       5.556762      1.724191      0.088802    -0.833508    0.394800   -0.669609
            21    0       3.459560     -0.026795      3.627172     1.313369    0.447772   -0.087827
            22    0       3.668993      1.877307      5.493148    -0.170201   -0.240204   -0.315551
            23    0       5.382571     -0.045734      5.488331     0.246496    0.254005   -0.692591
            24    0       5.387219      1.680510      3.500151    -0.181247    0.562457    0.586179
            25    0       3.534371      3.654349      0.006751     0.893797   -0.298660   -0.445528
            26    0       3.673279      5.378476      1.815729    -0.500583    0.342762   -0.236088
            27    0       5.471031      3.564279      1.838100    -0.536173   -0.453509   -0.663396
            28    0       5.357987      5.369950     -0.031894     0.574123   -0.172877    0.344530
            29    0       3.501813      3.649680      3.575822     0.875775   -0.412782    0.733208
            30    0       3.608519      5.452242      5.456290    -0.160280   -0.543087   -0.307487
            31    0       5.475766      3.601931      5.370635    -0.382012    0.176449    0.069711
            32    0       5.410512      5.262255      3.485453     0.149148    1.085085    1.253096
 Energy
          1.453189310920
 PlusStress:  xx          yy          zz          yz          xz          xy
         0.92510     0.39707     1.31446     1.04834     0.02573    -0.59493
END_CFG

BEGIN_CFG
 Size
    32
 Supercell
         7.220000      0.000000      0.000000
         0.000000      7.220000      0.000000
         0.000000      0.000000      7.220000
 AtomData:  id type       cartes_x      cartes_y      cartes_z           fx          fy          fz
             1    0       0.028605     -0.115082      0.061392    -0.382335    0.447103   -0.798703
             2    0       0.098556      1.599049      1.689728    -0.627093    1.092342    1.467455
             3    0       1.833234     -0.033165      1.809093     0.283438    0.167669    0.130817
             4    0       1.723667      1.884195      0.056600     0.777752   -0.744401   -1.099926
             5    0       0.007032      0.106571      3.661788     0.094025   -0.972480   -0.221595
             6    0      -0.091907      1.835860      5.326653     0.439160   -0.299346    0.820093
             7    0       1.892096      0.020356      5.418869    -0.684195    0.558171    0.671135
             8    0       1.744060      1.928243      3.592860     0.690061   -0.956487    0.105253
             9    0      -0.044245      3.585205      0.063946     0.305110    0.487760   -0.144750
            10    0       0.039501      5.450013      1.863836    -0.219927   -0.409882    0.098368
            11    0       2.014422      3.571280      1.756668    -1.662275    0.247007    0.408447
            12    0       1.733378      5.470925      0.118775     0.905472   -0.721143   -0.695846
            13    0      -0.002059      3.522174      3.505478     0.187728    0.482719    0.102312
            14    0       0.064111      5.491266      5.462430    -0.453266   -0.460205   -0.523083
            15    0       1.725380      3.644328      5.433656     0.145806    0.036096    0.066943
            16    0       1.810705      5.492837      3.631747    -0.530059   -0.854725   -0.097755
            17    0       3.668064      0.007028      0.028370    -0.641256   -0.133995   -0.290660
            18    0       3.673810      1.654132      1.768613    -0.518882    0.990906    0.082826
            19    0       5.373782     -0.093160      1.785414     0.567210   -0.218298    0.307595
            20    0       5.572021      1.715252      0.096815    -0.913881    0.392483   -0.723617
            21    0       3.447743     -0.026933      3.629396     1.401976    0.464776   -0.081598
            22    0       3.677061      1.887164      5.503029    -0.184988   -0.285921   -0.353270
            23    0       5.379556     -0.051082      5.493199     0.260791    0.279156   -0.724531
            24    0       5.380329      1.665409      3.487489    -0.149124    0.618187    0.669641
            25    0       3.531189      3.658393      0.003615     0.931722   -0.316009   -0.470946
            26    0       3.678866      5.376170      1.814965    -0.550611    0.329990   -0.226200
            27    0       5.475228      3.551822      1.836802    -0.609242   -0.436185   -0.675299
            28    0       5.354410      5.360430     -0.033559     0.613216   -0.149081    0.351979
            29    0       3.492611      3.651638      3.577371     0.951024   -0.410740    0.785540
            30    0       3.606860      5.452701      5.460149    -0.185992   -0.552988   -0.342423
            31    0       5.481680      3.602093      5.363909    -0.388939    0.201431    0.082344
            32    0       5.411322      5.248353      3.477679     0.147573    1.126091    1.319453
 Energy
          1.702670506215
 PlusStress:  xx          yy          zz          yz          xz          xy
         1.72483     1.13033     2.18868     1.18540     0.07041    -0.68063
END_CFG

BEGIN_CFG
 Size
    32
 Supercell
         7.220000      0.000000      0.000000
         0.000000      7.220000      0.000000
         0.000000      0.000000      7.220000
 AtomData:  id type       cartes_x      cartes_y      cartes_z           fx          fy          fz
             1    0       0.028606     -0.126245      0.059868    -0.390634    0.487443   -0.757554
             2    0       0.105366      1.582773      1.690481    -0.638464    1.133852    1.456880
             3    0       1.840996     -0.035789      1.811456     0.245735    0.163297    0.107228