BEGIN_CFG
 Size
    32
 Supercell
         7.220000      0.000000      0.000000
         0.000000      7.220000      0.000000
         0.000000      0.000000      7.220000
 AtomData:  id type       cartes_x      cartes_y      cartes_z           fx          fy          fz
             1    0       0.000000      0.000000      0.000000    -0.000000   -0.000000   -0.000000
             2    0       0.000000      1.805000      1.805000    -0.000000   -0.000000   -0.000000
             3    0       1.805000      0.000000      1.805000    -0.000000   -0.000000   -0.000000
             4    0       1.805000      1.805000      0.000000    -0.000000   -0.000000   -0.000000
             5    0       0.000000      0.000000      3.610000    -0.000000   -0.000000   -0.000000
             6    0       0.000000      1.805000      5.415000    -0.000000   -0.000000    0.000000
             7    0       1.805000      0.000000      5.415000    -0.000000   -0.000000    0.000000
             8    0       1.805000      1.805000      3.610000    -0.000000   -0.000000   -0.000000
             9    0       0.000000      3.610000      0.000000    -0.000000   -0.000000   -0.000000
            10    0       0.000000      5.415000      1.805000    -0.000000    0.000000   -0.000000
            11    0       1.805000      3.610000      1.805000    -0.000000    0.000000   -0.000000
            12    0       1.805000      5.415000      0.000000    -0.000000    0.000000   -0.000000
            13    0       0.000000      3.610000      3.610000    -0.000000   -0.000000   -0.000000
            14    0       0.000000      5.415000      5.415000    -0.000000    0.000000    0.000000
            15    0       1.805000      3.610000      5.415000    -0.000000   -0.000000    0.000000
            16    0       1.805000      5.415000      3.610000    -0.000000    0.000000   -0.000000
            17    0       3.610000      0.000000      0.000000    -0.000000   -0.000000   -0.000000
            18    0       3.610000      1.805000      1.805000     0.000000   -0.000000   -0.000000
            19    0       5.415000      0.000000      1.805000     0.000000   -0.000000   -0.000000
            20    0       5.415000      1.805000      0.000000     0.000000   -0.000000   -0.000000
            21    0       3.610000      0.000000      3.610000    -0.000000   -0.000000   -0.000000
            22    0       3.610000      1.805000      5.415000     0.000000   -0.000000    0.000000
            23    0       5.415000      0.000000      5.415000     0.000000    0.000000    0.000000
            24    0       5.415000      1.805000      3.610000     0.000000   -0.000000   -0.000000
            25    0       3.610000      3.610000      0.000000    -0.000000   -0.000000   -0.000000
            26    0       3.610000      5.415000      1.805000    -0.000000    0.000000   -0.000000
            27    0       5.415000      3.610000      1.805000     0.000000    0.000000   -0.000000
            28    0       5.415000      5.415000      0.000000     0.000000    0.000000   -0.000000
            29    0       3.610000      3.610000      3.610000    -0.000000   -0.000000   -0.000000
            30    0       3.610000      5.415000      5.415000    -0.000000    0.000000    0.000000
            31    0       5.415000      3.610000      5.415000     0.000000   -0.000000    0.000000
            32    0       5.415000      5.415000      3.610000     0.000000    0.000000   -0.000000
 Energy
         -0.184557083553
 PlusStress:  xx          yy          zz          yz          xz          xy
        16.47564    16.47564    16.47564     0.00000     0.00000    -0.00000
END_CFG

BEGIN_CFG
 Size
    32
 Supercell
         7.220000      0.000000      0.000000
         0.000000      7.220000      0.000000
         0.000000      0.000000      7.220000
 AtomData:  id type       cartes_x      cartes_y      cartes_z           fx          fy          fz
             1    0       0.005511     -0.018809      0.013573    -0.026878    0.091239   -0.171407
             2    0       0.017011      1.769714      1.781449    -0.085059    0.208597    0.208949
             3    0       1.807312     -0.005720      1.804696     0.056203    0.035094    0.030613
             4    0       1.789572      1.820905      0.014067     0.112919   -0.174204   -0.196925
             5    0       0.001194      0.020387      3.618455    -0.028589   -0.183222   -0.033038
             6    0      -0.015541      1.811669      5.397658     0.093191   -0.100220    0.174053
             7    0       1.820888     -0.000903      5.411657    -0.115157    0.148529    0.133974
             8    0       1.792685      1.827111      3.607205     0.128054   -0.146092    0.012541
             9    0      -0.007747      3.603631      0.009627     0.051121    0.098357   -0.009861
            10    0       0.006609      5.422465      1.812792    -0.024943   -0.091959    0.012504
            11    0       1.843734      3.602650      1.795736    -0.305698    0.071596    0.082677
            12    0       1.790282      5.426141      0.020419     0.143220   -0.089510   -0.114069
            13    0      -0.002061      3.594805      3.595088     0.080542    0.096310   -0.009660
            14    0       0.011767      5.428443      5.424823    -0.100603   -0.095614   -0.120402
            15    0       1.792964      3.614199      5.417110     0.023937    0.032552    0.021842
            16    0       1.808955      5.430761      3.614044    -0.107710   -0.158407   -0.041632
            17    0       3.622279      0.001222      0.005229    -0.147799    0.003298   -0.030492
            18    0       3.621417      1.778646      1.799218    -0.067026    0.158853    0.021989
            19    0       5.406493     -0.011555      1.800024     0.077129   -0.060413    0.085466
            20    0       5.442038      1.789341      0.017512    -0.160861    0.122821   -0.119700
            21    0       3.579564     -0.006057      3.612944     0.246333    0.058964    0.008457
            22    0       3.620602      1.817863      5.429348    -0.040821   -0.035843   -0.066140
            23    0       5.408693     -0.008362      5.430517     0.036064    0.019530   -0.171909
            24    0       5.411540      1.781928      3.589503    -0.064947    0.110247    0.097217
            25    0       3.593371      3.618992      0.002576     0.197481   -0.090328   -0.047201
            26    0       3.622488      5.407273      1.807867    -0.086604    0.077570   -0.048829
            27    0       5.426314      3.604405      1.813261    -0.086963   -0.089795   -0.120613
            28    0       5.403028      5.408434     -0.006904     0.116630   -0.046597    0.078533
            29    0       3.588372      3.618807      3.601510     0.166737   -0.117085    0.116874
            30    0       3.610226      5.423695      5.423076    -0.016213   -0.120239   -0.053259
            31    0       5.427034      3.608219      5.407344    -0.099511    0.009567    0.013981
            32    0       5.413558      5.384483      3.583828     0.035820    0.256405    0.255467
 Energy
         -0.116959082284
 PlusStress:  xx          yy          zz          yz          xz          xy
        16.73794    16.71984    16.74921     0.04670    -0.00016    -0.03303
END_CFG

BEGIN_CFG
 Size
    32
 Supercell
         7.220000      0.000000      0.000000
         0.000000      7.220000      0.000000
         0.000000      0.000000      7.220000
 AtomData:  id type       cartes_x      cartes_y      cartes_z           fx          fy          fz
             1    0       0.010913     -0.037275      0.026492    -0.071517    0.171641   -0.335982
             2    0       0.033703      1.735217      1.758693    -0.184830    0.408819    0.448198
             3    0       1.809838     -0.011305      1.804515     0.116532    0.069080    0.060344
             4    0       1.774573      1.836155      0.027383     0.242352   -0.336355   -0.401824
             5    0       0.002280      0.040084      3.626787    -0.036147   -0.361659   -0.068988
             6    0      -0.030732      1.817964      5.380971     0.176108   -0.180477    0.337913
             7    0       1.836343     -0.001241      5.408817    -0.233739    0.282814    0.270768
             8    0       1.780853      1.848668      3.604462     0.251226   -0.297525    0.021156
             9    0      -0.015299      3.597638      0.019211     0.098731    0.196250   -0.023784
            10    0       0.013123      5.429580      1.820631    -0.057614   -0.176951    0.035729
            11    0       1.881313      3.595569      1.786782    -0.607026    0.137074    0.164350
            12    0       1.776107      5.436939      0.040400     0.295373   -0.193991   -0.228900
            13    0      -0.003822      3.579971      3.580145     0.145665    0.188085   -0.015213
            14    0       0.023154      5.441518      5.434191    -0.191065   -0.181238   -0.225154
            15    0       1.781014      3.618525      5.419306     0.046668    0.058216    0.041160
            16    0       1.812503      5.445924      3.617936    -0.217704   -0.318545   -0.077266
            17    0       3.634001      0.002460      0.010337    -0.288300   -0.003184   -0.067378
            18    0       3.632582      1.752897      1.793520    -0.144973    0.320473    0.042275
            19    0       5.398283     -0.023343      1.795369     0.164744   -0.123467    0.163719
            20    0       5.468462      1.774145      0.034564    -0.313894    0.221099   -0.242815
            21    0       3.550056     -0.011892      3.615927     0.494979    0.136181    0.000326
            22    0       3.631054      1.830593      5.443447    -0.076692   -0.073214   -0.126212
            23    0       5.402519     -0.016649      5.445387     0.080714    0.056717   -0.323047
            24    0       5.407833      1.759278      3.569379    -0.119420    0.214525    0.196096
            25    0       3.577488      3.627639      0.004971     0.380883   -0.159885   -0.115100
            26    0       3.634652      5.399836      1.810552    -0.177188    0.155554   -0.100907
            27    0       5.437299      3.598467      1.821070    -0.177857   -0.184990   -0.251112
            28    0       5.391499      5.401692     -0.013514     0.230467   -0.092111    0.152702
            29    0       3.567380      3.627172      3.593466     0.330456   -0.217850    0.246546
            30    0       3.610389      5.431935      5.430948    -0.037510   -0.236575   -0.108426
            31    0       5.438695      3.606470      5.399735    -0.188126    0.033375    0.026940
            32    0       5.412248      5.354932      3.558626     0.068704    0.488113    0.503888
 Energy
          0.077908734861
 PlusStress:  xx          yy          zz          yz          xz          xy
        17.49140    17.41494    17.54054     0.18426    -0.00229    -0.12189
END_CFG

BEGIN_CFG
 Size
    32
 Supercell
         7.220000      0.000000      0.000000
         0.000000      7.220000      0.000000
         0.000000      0.000000      7.220000
 AtomData:  id type       cartes_x      cartes_y      cartes_z           fx          fy          fz
             1    0       0.016029     -0.055095      0.038125    -0.131400    0.241904   -0.488095
             2    0       0.049697      1.702272      1.737646    -0.293956    0.595939    0.707378
             3    0       1.812808     -0.016626      1.804577     0.176394    0.100510    0.087687
             4    0       1.760496      1.850138      0.039165     0.382073   -0.478600   -0.605124
             5    0       0.003227      0.058418      3.634860    -0.025329   -0.529212   -0.106512
             6    0      -0.045261      1.823584      5.365560     0.248055   -0.240665    0.486614
             7    0       1.850920     -0.000503      5.406996    -0.351575    0.396986    0.403087
             8    0       1.769972      1.869095      3.601806     0.368405   -0.450993    0.029026
             9    0      -0.022477      3.592397      0.028691     0.142710    0.288255   -0.041852
            10    0       0.019418      5.436023      1.828604    -0.095852   -0.252631    0.065378
            11    0       1.916594      3.589008      1.778449    -0.895087    0.191749    0.242227
            12    0       1.763053      5.446996      0.059501     0.452577   -0.311150   -0.342740
            13    0      -0.005041      3.565842      3.565154     0.192216    0.273406   -0.013273
            14    0       0.033822      5.453896      5.442706    -0.269628   -0.256892   -0.314768
            15    0       1.769236      3.623079      5.421664     0.068231    0.075074    0.056866
            16    0       1.815228      5.459886      3.621546    -0.324210   -0.474314   -0.104490
            17    0       3.644635      0.003692      0.015179    -0.414479   -0.018856   -0.110214
            18    0       3.643200      1.728370      1.787983    -0.230242    0.480364    0.060135
            19    0       5.390706     -0.035610      1.791332     0.258674   -0.182731    0.230207
            20    0       5.493689      1.759785      0.050677    -0.461024    0.296573   -0.366088
            21    0       3.522413     -0.017214      3.618926     0.738924    0.224684   -0.021021
            22    0       3.641225      1.843050      5.457068    -0.107932   -0.112101   -0.180062
            23    0       5.396643     -0.024719      5.459040     0.129674    0.105140   -0.451696
            24    0       5.403671      1.737449      3.550006    -0.160503    0.312371    0.295271
            25    0       3.563049      3.635673      0.006924     0.547862   -0.211383   -0.200071
            26    0       3.646151      5.392985      1.812859    -0.268524    0.228010   -0.151659
            27    0       5.447610      3.591822      1.827936    -0.270497   -0.279108   -0.383651
            28    0       5.380845      5.394602     -0.019549     0.337268   -0.132147    0.219495
            29    0       3.547649      3.634711      3.586363     0.487548   -0.298746    0.382787
            30    0       3.610406      5.439280      5.438408    -0.063507   -0.342893   -0.163470
            31    0       5.449652      3.604836      5.392216    -0.263182    0.067852    0.038988
            32    0       5.411191      5.327220      3.535341     0.096317    0.693605    0.739639
 Energy
          0.376019457578
 PlusStress:  xx          yy          zz          yz          xz          xy
        18.64741    18.47192    18.75746     0.39989    -0.00663    -0.25578
END_CFG

BEGIN_CFG
 Size
    32
 Supercell
         7.220000      0.000000      0.000000
         0.000000      7.220000      0.000000
         0.000000      0.000000      7.220000
 AtomData:  id type       cartes_x      cartes_y      cartes_z           fx          fy          fz
             1    0       0.020623     -0.072007      0.047884    -0.202199    0.304753   -0.620369
             2    0       0.064579      1.671592      1.719298    -0.404109    0.761927    0.964916
             3    0       1.816455     -0.021564      1.804991     0.229622    0.127767    0.110210
             4    0       1.747874      1.862317      0.048634     0.521363   -0.594315   -0.793606
             5    0       0.004075      0.074757      3.642531    -0.001081   -0.679891   -0.143385
             6    0      -0.058856      1.828305      5.351986     0.309365   -0.281732    0.614718
             7    0       1.864174      0.001744      5.406694    -0.462568    0.485874    0.521419
             8    0       1.760479      1.887812      3.599270     0.475455   -0.600416    0.038904
             9    0      -0.029115      3.588260      0.037995     0.183916    0.368355   -0.063496
            10    0       0.025347      5.441503      1.836821    -0.135962   -0.316420    0.094850
            11    0       1.948479      3.583175      1.771031    -1.159451    0.230542    0.311902
            12    0       1.751714      5.455870      0.077288     0.604198   -0.432267   -0.451855
            13    0      -0.005542      3.552738      3.550125     0.219006    0.349601   -0.001672
            14    0       0.043476      5.465287      5.450035    -0.335466   -0.320166   -0.387466
            15    0       1.757707      3.627929      5.424246     0.088756    0.081780    0.067798
            16    0       1.816724      5.472053      3.624773    -0.419578   -0.617589   -0.121148
            17    0       3.653703      0.004863      0.019588    -0.519242   -0.042520   -0.157296
            18    0       3.652950      1.705674      1.782677    -0.317279    0.634044    0.075501
            19    0       5.384124     -0.048583      1.788163     0.353848   -0.229054    0.280785
            20    0       5.517156      1.746549      0.065379    -0.598399    0.348878   -0.483115
            21    0       3.497559     -0.021690      3.621866     0.967613    0.314137   -0.048368
            22    0       3.651000      1.855090      5.470010    -0.134554   -0.152514   -0.228564
            23    0       5.391246     -0.032387      5.470995     0.177675    0.157375   -0.556851
            24    0       5.398900      1.716819      3.531762    -0.185514    0.403174    0.393794
            25    0       3.550692      3.642894      0.008109     0.694912   -0.249422   -0.293063
            26    0       3.656640      5.386997      1.814594    -0.356566    0.288148   -0.195392
            27    0       5.456898      3.584109      1.833359    -0.362563   -0.362563   -0.506722
            28    0       5.371474      5.387015     -0.024758     0.432619   -0.161984    0.275698
            29    0       3.529782      3.641113      3.580722     0.633223   -0.357647    0.516204
            30    0       3.610177      5.445326      5.445248    -0.092944   -0.433750   -0.217374
            31    0       5.459622      3.603439      5.384832    -0.322771    0.108292    0.050333
            32    0       5.410494      5.302122      3.514867     0.118675    0.867603    0.952709
 Energy
          0.738412195369
 PlusStress:  xx          yy          zz          yz          xz          xy
        20.04989    19.73863    20.23309     0.65832    -0.01041    -0.40150
END_CFG

BEGIN_CFG
 Size
    32
 Supercell
         7.220000      0.000000      0.000000
         0.000000      7.220000      0.000000
         0.000000      0.000000      7.220000
 AtomData:  id type       cartes_x      cartes_y      cartes_z           fx          fy          fz
             1    0       0.024425     -0.087779      0.055255    -0.273062    0.360829   -0.722273
             2    0       0.077924      1.643817      1.704640    -0.504092    0.901678    1.194704
             3    0       1.820985     -0.026016      1.805850     0.268993    0.149161    0.124721
             4    0       1.737237      1.872249      0.055064     0.644567   -0.679047   -0.949722
             5    0       0.004913      0.088534      3.649656     0.030230   -0.807942   -0.176502
             6    0      -0.071287      1.831974      5.340738     0.361460   -0.305257    0.716996
             7    0       1.875686      0.005841      5.408360    -0.559148    0.544927    0.614297
             8    0       1.752773      1.904251      3.596892     0.566901   -0.740110    0.053276
             9    0      -0.035056      3.585538      0.047034     0.223893    0.430371   -0.087681
            10    0       0.030760      5.445778      1.845392    -0.172578   -0.366199    0.115839
            11    0       1.975955      3.578226      1.764798    -1.384812    0.253611    0.367377
            12    0       1.742663      5.463099      0.093340     0.738202   -0.547010   -0.550954
            13    0      -0.005222      3.540942      3.535105     0.225998    0.413835    0.020561
            14    0       0.051867      5.475443      5.455902    -0.388437   -0.371976   -0.444485
            15    0       1.746506      3.633104      5.427096     0.108402    0.077504    0.072794
            16    0       1.816633      5.481882      3.627553    -0.492657   -0.736668   -0.125694
            17    0       3.660805      0.005886      0.023378    -0.595895   -0.072342   -0.205477
            18    0       3.661501      1.685392      1.777659    -0.400288    0.774502    0.085189
            19    0       5.378899     -0.062448      1.786054     0.441239   -0.256124    0.312127
            20    0       5.538340      1.734642      0.078219    -0.721252    0.380612   -0.584800
            21    0       3.476357     -0.024981      3.624646     1.166296    0.390981   -0.073086
            22    0       3.660283      1.866561      5.482091    -0.156670   -0.194592   -0.272959
            23    0       5.386505     -0.039454      5.480860     0.219124    0.206004   -0.637745
            24    0       5.393425      1.697736      3.515023    -0.192719    0.484309    0.489584
            25    0       3.540980      3.649156      0.008164     0.813559   -0.276566   -0.379930
            26    0       3.665784      5.382107      1.815590    -0.436681    0.329164   -0.225960
            27    0       5.464817      3.575007      1.836874    -0.451474   -0.423438   -0.606101
            28    0       5.363752      5.378816     -0.028927     0.512289   -0.177011    0.318100
            29    0       3.514338      3.646151      3.577056     0.761640   -0.393901    0.634799
            30    0       3.609587      5.449733      5.451269    -0.123659   -0.501886   -0.267012
            31    0       5.468381      3.602423      5.377624    -0.365608    0.149352    0.061329
            32    0       5.410247      5.280295      3.498012     0.136237    1.003229    1.128690
 Energy
          1.114710670136
 PlusStress:  xx          yy          zz          yz          xz          xy
        21.48952    21.02941    21.74912     0.91393    -0.00493    -0.54606
END_CFG

BEGIN_CFG
 Size
    32
 Supercell
         7.220000      0.000000      0.000000
         0.000000      7.220000      0.000000
         0.000000      0.000000      7.220000
 AtomData:  id type       cartes_x      cartes_y      cartes_z           fx          fy          fz
             1    0       0.027162     -0.102201      0.059838    -0.332683    0.412451   -0.783486
             2    0       0.089350      1.619495      1.694561    -0.581990    1.011386    1.366584
             3    0       1.826554     -0.029900      1.807212     0.287247    0.163074    0.128047
             4    0       1.729054      1.879609      0.057856     0.734414   -0.731232   -1.054832
             5    0       0.005859      0.099265      3.656109     0.061620   -0.908325   -0.202318
             6    0      -0.082358      1.834503      5.332204     0.404730   -0.313327    0.787531
             7    0       1.885088      0.012012      5.412347    -0.633491    0.570567    0.669833
             8    0       1.747205      1.917883      3.594728     0.640844   -0.862570    0.075126
             9    0      -0.040150      3.584470      0.055717     0.263984    0.468728   -0.113503
            10    0       0.035515      5.448656      1.854393    -0.201469   -0.398638    0.119524
            11    0       1.998157      3.574253      1.759964    -1.555491    0.259519    0.402383
            12    0       1.736416      5.468242      0.107278     0.842495   -0.643434   -0.635462
            13    0      -0.004050      3.530695      3.520181     0.215545    0.460487    0.054638
            14    0       0.058796      5.484157      5.460087    -0.428924   -0.413375   -0.486594
            15    0       1.735706      3.638589      5.430235     0.127433    0.061911    0.070902
            16    0       1.814676      5.488916      3.629869    -0.531447   -0.819618   -0.117721
            17    0       3.665647      0.006649      0.026364    -0.638928   -0.105865   -0.250472
            18    0       3.668543      1.668060      1.772967    -0.470600    0.893931    0.088116
            19    0       5.375361     -0.077309      1.785125     0.511691   -0.254497    0.322332
            20    0       5.556762      1.724191      0.088802    -0.824526    0.393559   -0.664607
            21    0       3.459560     -0.026795      3.627172     1.317247    0.442518   -0.085782
            22    0       3.668993      1.877307      5.493148    -0.175231   -0.239204   -0.314410
            23    0       5.382571     -0.045734      5.488331     0.248856    0.244533   -0.693853
            24    0       5.387219      1.680510      3.500151    -0.180923    0.553378    0.580030
            25    0       3.534371      3.654349      0.006751     0.895947   -0.296666   -0.444301
            26    0       3.673279      5.378476      1.815729    -0.503321    0.345209   -0.237238
            27    0       5.471031      3.564279      1.838100    -0.534220   -0.449678   -0.667291
            28    0       5.357987      5.369950     -0.031894     0.572606   -0.173711    0.343683
            29    0       3.501813      3.649680      3.575822     0.866852   -0.408204    0.725787
            30    0       3.608519      5.452242      5.456290    -0.152850   -0.542169   -0.310419
            31    0       5.475766      3.601931      5.370635    -0.390876    0.185564    0.072509
            32    0       5.410512      5.262255      3.485453     0.145461    1.093699    1.255262
 Energy
          1.450915994169
 PlusStress:  xx          yy          zz          yz          xz          xy
        22.75480    22.17118    23.09606     1.12912     0.01982    -0.67448
END_CFG

BEGIN_CFG
 Size
    32
 Supercell
         7.220000      0.000000      0.000000
         0.000000      7.220000      0.000000
         0.000000      0.000000      7.220000
 AtomData:  id type       cartes_x      cartes_y      cartes_z           fx          fy          fz
             1    0       0.028605     -0.115082      0.061392    -0.370676    0.459284   -0.794912
             2    0       0.098556      1.599049      1.689728    -0.627518    1.087045    1.455094
             3    0       1.833234     -0.033165      1.809093     0.278612    0.168255    0.117963
             4    0       1.723667      1.884195      0.056600     0.777275   -0.751836   -1.093900
             5    0       0.007032      0.106571      3.661788     0.087954   -0.975771   -0.217422
             6    0      -0.091907      1.835860      5.326653     0.439699   -0.308349    0.822039
             7    0       1.892096      0.020356      5.418869    -0.679473    0.560640    0.678086
             8    0       1.744060      1.928243      3.592860     0.693945   -0.960355    0.105502
             9    0      -0.044245      3.585205      0.063946     0.305298    0.479279   -0.139481
            10    0       0.039501      5.450013      1.863836    -0.218900   -0.412104    0.098282
            11    0       2.014422      3.571280      1.756668    -1.658951    0.249920    0.412246
            12    0       1.733378      5.470925      0.118775     0.905659   -0.710126   -0.700111
            13    0      -0.002059      3.522174      3.505478     0.191783    0.486154    0.098355
            14    0       0.064111      5.491266      5.462430    -0.457620   -0.445379   -0.514026
            15    0       1.725380      3.644328      5.433656     0.146248    0.035109    0.061594
            16    0       1.810705      5.492837      3.631747    -0.526556   -0.857462   -0.098315
            17    0       3.668064      0.007028      0.028370    -0.644839   -0.140145   -0.287370
            18    0       3.673810      1.654132      1.768613    -0.521026    0.985918    0.083387
            19    0       5.373782     -0.093160      1.785414     0.557915   -0.218090    0.311426
            20    0       5.572021      1.715252      0.096815    -0.902437    0.389802   -0.717132
            21    0       3.447743     -0.026933      3.629396     1.406193    0.457876   -0.078297
            22    0       3.677061      1.887164      5.503029    -0.190364   -0.285588   -0.353626
            23    0       5.379556     -0.051082      5.493199     0.262892    0.268143   -0.725191
            24    0       5.380329      1.665409      3.487489    -0.150051    0.608242    0.662075
            25    0       3.531189      3.658393      0.003615     0.934128   -0.313312   -0.469646
            26    0       3.678866      5.376170      1.814965    -0.552883    0.332835   -0.226513
            27    0       5.475228      3.551822      1.836802    -0.607245   -0.432360   -0.679218
            28    0       5.354410      5.360430     -0.033559     0.610695   -0.149525    0.350812
            29    0       3.492611      3.651638      3.577371     0.941506   -0.404029    0.777124
            30    0       3.606860      5.452701      5.460149    -0.177356   -0.551492   -0.345924
            31    0       5.481680      3.602093      5.363909    -0.398225    0.211784    0.084605
            32    0       5.411322      5.248353      3.477679     0.144319    1.135637    1.322494
 Energy
          1.700077036077
 PlusStress:  xx          yy          zz          yz          xz          xy
        23.67380    23.01336    24.08440     1.27485     0.07051    -0.77383
END_CFG

BEGIN_CFG
 Size
    32
 Supercell
         7.220000      0.000000      0.000000
         0.000000      7.220000      0.000000
         0.000000      0.000000      7.220000
 AtomData:  id type       cartes_x      cartes_y      cartes_z           fx          fy          fz
             1    0       0.028606     -0.126245      0.059868    -0.379301    0.500158   -0.753064
             2    0       0.105366      1.582773      1.690481    -0.637463    1.127476    1.444630
             3    0       1.840996     -0.035789      1.811456     0.240184    0.164090    0.094242