BEGIN_CFG
 Size
    27
 Supercell
         0.000000      5.415000      5.415000
         5.415000      0.000000      5.415000
         5.415000      5.415000      0.000000
 AtomData:  id type       cartes_x      cartes_y      cartes_z           fx          fy          fz
             1    0       0.000000      0.000000      0.000000    -1.215224   -0.005951   -1.215224
             2    1       1.805000      1.805000      0.000000     0.581798   -0.733815    0.093065
             3    2       3.610000      3.610000      0.000000     0.338114    0.344735    0.074907
             4    2       1.805000      0.000000      1.805000     0.229007    0.050199    0.229007
             5    0       3.610000      1.805000      1.805000     0.253921   -0.596675   -0.861105
             6    1       5.415000      3.610000      1.805000    -0.035854    0.020089   -0.054582
             7    2       3.610000      0.000000      3.610000     0.367442    0.052066    0.367442
             8    2       5.415000      1.805000      3.610000    -0.015360   -0.681700   -0.031641
             9    0       7.220000      3.610000      3.610000    -0.262522    0.861377   -0.620435
            10    1       0.000000      1.805000      1.805000     0.093065   -0.733815    0.581798
            11    2       1.805000      3.610000      1.805000     0.324468    0.671037    0.324468
            12    2       3.610000      5.415000      1.805000    -0.625877   -0.042694   -0.006869
            13    0       1.805000      1.805000      3.610000    -0.861105   -0.596675    0.253921
            14    1       3.610000      3.610000      3.610000    -0.044142    1.314026   -0.044142
            15    2       5.415000      5.415000      3.610000    -0.361153    0.336184   -0.069845
            16    2       3.610000      1.805000      5.415000    -0.031641   -0.681700   -0.015360
            17    0       5.415000      3.610000      5.415000    -0.610394    0.001555   -0.610394
            18    1       7.220000      5.415000      5.415000     1.260736    0.713187    0.768597
            19    2       0.000000      3.610000      3.610000     0.074907    0.344735    0.338114
            20    2       1.805000      5.415000      3.610000    -0.006869   -0.042694   -0.625877
            21    0       3.610000      7.220000      3.610000     0.884504   -1.811460    0.884504
            22    1       1.805000      3.610000      5.415000    -0.054582    0.020089   -0.035854
            23    2       3.610000      5.415000      5.415000    -0.069845    0.336184   -0.361153
            24    2       5.415000      7.220000      5.415000    -0.260657    0.005918   -0.260657
            25    0       3.610000      3.610000      7.220000    -0.620435    0.861377   -0.262522
            26    1       5.415000      5.415000      7.220000     0.768597    0.713187    1.260736
            27    2       7.220000      7.220000      7.220000    -0.100897   -0.718766   -0.100897
 Energy
          7.361913230306
 PlusStress:  xx          yy          zz          yz          xz          xy
        80.64915    76.44863    80.64915    -0.37300    -4.87818    -0.37300
END_CFG

BEGIN_CFG
 Size
    27
 Supercell
         0.000000      5.415000      5.415000
         5.415000      0.000000      5.415000
         5.415000      5.415000      0.000000
 AtomData:  id type       cartes_x      cartes_y      cartes_z           fx          fy          fz
             1    0       0.002399     -0.010685      0.006978    -1.374072    0.325361   -1.365697
             2    1       1.818698      1.777096     -0.017959     0.127080   -0.393631    0.481878
             3    2       3.612946      3.604940     -0.000163     0.339816    0.328297   -0.020856
             4    2       1.789998      0.015981      1.819493     0.359305   -0.175319    0.188107
             5    0       3.610830      1.816221      1.809274     0.374138   -0.903079   -0.962248
             6    1       5.403032      3.615147      1.791623     0.201436   -0.106527    0.146187
             7    2       3.626591     -0.000818      3.607360     0.239914    0.084364    0.411840
             8    2       5.402661      1.825818      3.607142     0.154115   -0.959278    0.031843
             9    0       7.215437      3.606907      3.615087    -0.324007    0.943286   -0.858196
            10    1       0.005191      1.809909      1.811622    -0.030668   -0.655864    0.327382
            11    2       1.844346      3.603925      1.796348    -0.056626    0.671791    0.331157
            12    2       3.594087      5.426060      1.825400    -0.405488   -0.087422   -0.268658
            13    0       1.803301      1.796010      3.601682    -0.643896   -0.324011    0.670568
            14    1       3.618987      3.621778      3.617496    -0.177250    1.070367   -0.028205
            15    2       5.402279      5.419833      3.611994    -0.256321    0.247248   -0.063093
            16    2       3.613892      1.819467      5.419020    -0.080739   -0.881847   -0.053995
            17    0       5.421595      3.610691      5.417591    -0.568684   -0.133663   -0.387550
            18    1       7.230169      5.395573      5.411422     1.292205    1.095875    0.777399
            19    2      -0.008366      3.599105      3.605658     0.242573    0.411064    0.425980
            20    2       1.832019      5.399260      3.626317    -0.422267   -0.040165   -0.818834
            21    0       3.593255      7.215448      3.612215     1.271595   -1.679421    0.708561
            22    1       1.813072      3.619901      5.425973    -0.282634   -0.356109   -0.242428
            23    2       3.603577      5.407272      5.429832     0.119823    0.412987   -0.327398
            24    2       5.411040      7.196936      5.394003    -0.154589    0.169293   -0.019663
            25    0       3.600173      3.615632      7.221300    -0.409491    0.813727   -0.140582
            26    1       5.425445      5.409869      7.223607     0.816839    0.784188    1.307069
            27    2       7.231133      7.213051      7.228079    -0.352107   -0.661511   -0.250566
 Energy
          7.422067151046
 PlusStress:  xx          yy          zz          yz          xz          xy
        80.83837    76.59874    80.92412    -0.47332    -4.76257    -0.31060
END_CFG

BEGIN_CFG
 Size
    27
 Supercell
         0.000000      5.415000      5.415000
         5.415000      0.000000      5.415000
         5.415000      5.415000      0.000000
 AtomData:  id type       cartes_x      cartes_y      cartes_z           fx          fy          fz
             1    0       0.003141     -0.020974      0.012311    -1.471824    0.649054   -1.477957
             2    1       1.832667      1.748311     -0.034807    -0.355566   -0.018101    0.874294
             3    2       3.617167      3.601132     -0.000407     0.320192    0.277907   -0.142037
             4    2       1.776358      0.031257      1.834681     0.472142   -0.414235    0.107597
             5    0       3.612106      1.826347      1.812368     0.479063   -1.192090   -1.018015
             6    1       5.391508      3.620078      1.778566     0.416309   -0.225340    0.370390
             7    2       3.644103     -0.001343      3.606298     0.094140    0.114249    0.429594
             8    2       5.390914      1.842989      3.604395     0.306616   -1.148753    0.096450
             9    0       7.210470      3.604968      3.619115    -0.360986    0.971768   -1.045962
            10    1       0.010340      1.813349      1.818960    -0.177285   -0.546488    0.052687
            11    2       1.883476      3.600399      1.788942    -0.449697    0.646928    0.331382
            12    2       3.576621      5.436784      1.844772    -0.146495   -0.140996   -0.523762
            13    0       1.800816      1.786635      3.594177    -0.397210   -0.042101    1.055766
            14    1       3.627590      3.635947      3.624943    -0.281148    0.761162   -0.026226
            15    2       5.388571      5.425584      3.613781    -0.123134    0.134428   -0.056686
            16    2       3.617469      1.830599      5.422847    -0.116727   -1.015354   -0.088847
            17    0       5.427477      3.611215      5.419698    -0.513636   -0.237458   -0.150703
            18    1       7.243226      5.378605      5.409580     1.246479    1.410531    0.757722
            19    2      -0.015810      3.589777      3.602921     0.371977    0.449169    0.492149
            20    2       1.857422      5.383374      3.639515    -0.815950   -0.050784   -0.974481
            21    0       3.578073      7.208821      3.615303     1.642817   -1.454414    0.492308
            22    1       1.820510      3.629030      5.436407    -0.495733   -0.693103   -0.422100
            23    2       3.597629      5.401091      5.443423     0.332855    0.459138   -0.263919
            24    2       5.406481      7.174507      5.372914    -0.059350    0.318989    0.228424
            25    0       3.589841      3.622259      7.222416    -0.166697    0.734119    0.004424
            26    1       5.437722      5.406491      7.230129     0.820226    0.796678    1.272388
            27    2       7.240950      7.203612      7.235231    -0.571378   -0.544902   -0.374880
 Energy
          7.571731584985
 PlusStress:  xx          yy          zz          yz          xz          xy
        81.15712    76.80389    81.34216    -0.52723    -4.60996    -0.31944
END_CFG

BEGIN_CFG
 Size
    27
 Supercell
         0.000000      5.415000      5.415000
         5.415000      0.000000      5.415000
         5.415000      5.415000      0.000000
 AtomData:  id type       cartes_x      cartes_y      cartes_z           fx          fy          fz
             1    0       0.002104     -0.030474      0.015859    -1.505480    0.949615   -1.546431
             2    1       1.845833      1.719491     -0.049660    -0.831627    0.368231    1.243043
             3    2       3.622587      3.598377     -0.001193     0.277990    0.196286   -0.277099
             4    2       1.764528      0.044921      1.850258     0.563152   -0.652724   -0.010265
             5    0       3.613953      1.835021      1.814213     0.559478   -1.451358   -1.028522
             6    1       5.380906      3.624537      1.766328     0.599224   -0.329731    0.607677
             7    2       3.661987     -0.001459      3.606881    -0.065425    0.139032    0.418164
             8    2       5.380332      1.855778      3.601993     0.443596   -1.257788    0.160280
             9    0       7.205053      3.604223      3.621852    -0.371265    0.946798   -1.171662
            10    1       0.015120      1.815566      1.826404    -0.338506   -0.418993   -0.216196
            11    2       1.920887      3.599324      1.782781    -0.828907    0.598834    0.331709
            12    2       3.558589      5.446968      1.862140     0.140425   -0.202587   -0.760035
            13    0       1.797848      1.777221      3.587957    -0.136196    0.237667    1.392393
            14    1       3.635578      3.651831      3.632356    -0.344579    0.398561   -0.037832
            15    2       5.374375      5.431816      3.615383     0.032597    0.005600   -0.056694
            16    2       3.620590      1.837904      5.426354    -0.139270   -1.078989   -0.116630
            17    0       5.432710      3.611445      5.421616    -0.449494   -0.297848    0.083086
            18    1       7.259071      5.364806      5.409429     1.126141    1.641395    0.708456
            19    2      -0.021833      3.582159      3.602043     0.461500    0.456653    0.530485
            20    2       1.879692      5.367314      3.649011    -1.184535   -0.051268   -1.080522
            21    0       3.564911      7.200382      3.619003     1.970175   -1.154667    0.250763
            22    1       1.826848      3.636638      5.445901    -0.682894   -0.971649   -0.574194
            23    2       3.592950      5.396623      5.456005     0.549076    0.471346   -0.185671
            24    2       5.401696      7.153276      5.352668     0.024601    0.453613    0.475742
            25    0       3.579301      3.629785      7.223519     0.095024    0.626864    0.160904
            26    1       5.451848      5.404887      7.239487     0.778195    0.750046    1.165575
            27    2       7.248620      7.192124      7.240980    -0.742995   -0.372940   -0.466524
 Energy
          7.786152839416
 PlusStress:  xx          yy          zz          yz          xz          xy
        81.61598    77.08131    81.88151    -0.54338    -4.42915    -0.41404
END_CFG

BEGIN_CFG
 Size
    27
 Supercell
         0.000000      5.415000      5.415000
         5.415000      0.000000      5.415000
         5.415000      5.415000      0.000000
 AtomData:  id type       cartes_x      cartes_y      cartes_z           fx          fy          fz
             1    0      -0.000758     -0.038823      0.017535    -1.477070    1.210563   -1.564714
             2    1       1.857131      1.691515     -0.061685    -1.262527    0.738329    1.555153
             3    2       3.629052      3.596362     -0.003039     0.213251    0.088706   -0.410062
             4    2       1.754877      0.056071      1.865780     0.628125   -0.871481   -0.156106
             5    0       3.616473      1.841918      1.814796     0.607129   -1.667448   -0.997080
             6    1       5.371641      3.628294      1.755433     0.743728   -0.413883    0.841707
             7    2       3.679654     -0.001068      3.609068    -0.233626    0.156081    0.375105
             8    2       5.371398      1.863774      3.600163     0.551607   -1.281380    0.222316
             9    0       7.199172      3.604647      3.623140    -0.355576    0.874125   -1.226960
            10    1       0.019165      1.816848      1.833353    -0.498290   -0.288388   -0.455021
            11    2       1.955109      3.600517      1.777860    -1.171493    0.526856    0.338062
            12    2       3.541090      5.456377      1.876588     0.441323   -0.268749   -0.962435
            13    0       1.794716      1.768110      3.583438     0.122023    0.503090    1.663672
            14    1       3.642803      3.668624      3.639720    -0.365201    0.001185   -0.060722
            15    2       5.360285      5.438034      3.616799     0.204219   -0.129508   -0.067244
            16    2       3.623168      1.841164      5.429440    -0.148210   -1.072153   -0.134725
            17    0       5.437369      3.611311      5.423637    -0.378237   -0.311140    0.298257
            18    1       7.277435      5.354697      5.410860     0.937630    1.777125    0.627903
            19    2      -0.026079      3.576290      3.603169     0.517260    0.433705    0.532832
            20    2       1.897422      5.351067      3.654412    -1.502366   -0.033223   -1.123914
            21    0       3.554167      7.190489      3.623022     2.219501   -0.808377    0.005548
            22    1       1.831674      3.642097      5.454123    -0.833835   -1.179708   -0.699134
            23    2       3.590346      5.393906      5.467862     0.742700    0.449636   -0.110063
            24    2       5.397026      7.133751      5.334207     0.101542    0.573914    0.714262
            25    0       3.568876      3.638078      7.224797     0.361784    0.497363    0.315449
            26    1       5.467736      5.404952      7.251447     0.689763    0.647190    0.998670
            27    2       7.253482      7.179245      7.244972    -0.855156   -0.152432   -0.520757
 Energy
          8.028087964973
 PlusStress:  xx          yy          zz          yz          xz          xy
        82.15120    77.36154    82.49729    -0.53915    -4.23208    -0.53048
END_CFG

BEGIN_CFG
 Size
    27
 Supercell
         0.000000      5.415000      5.415000
         5.415000      0.000000      5.415000
         5.415000      5.415000      0.000000
 AtomData:  id type       cartes_x      cartes_y      cartes_z           fx          fy          fz
             1    0      -0.005418     -0.045708      0.017307    -1.393103    1.415107   -1.527081
             2    1       1.865586      1.665239     -0.070170    -1.610790    1.074022    1.780503
             3    2       3.636325      3.594680     -0.006451     0.127659   -0.036080   -0.521712
             4    2       1.747670      0.063877      1.880694     0.663018   -1.046582   -0.314637
             5    0       3.619732      1.846760      1.814156     0.616113   -1.826898   -0.928985
             6    1       5.364043      3.631159      1.746391     0.846698   -0.476257    1.049201
             7    2       3.696487     -0.000104      3.612697    -0.403785    0.162742    0.298558
             8    2       5.364494      1.866879      3.599123     0.628587   -1.227537    0.281518
             9    0       7.192844      3.606153      3.622911    -0.316653    0.762996   -1.207749
            10    1       0.022119      1.817492      1.839274    -0.635817   -0.169415   -0.643148
            11    2       1.984806      3.603700      1.774183    -1.449060    0.423978    0.339344
            12    2       3.525288      5.464766      1.887316     0.738005   -0.334982   -1.113682
            13    0       1.791734      1.759631      3.580953     0.364550    0.746266    1.852263
            14    1       3.649214      3.685434      3.646998    -0.356481   -0.410260   -0.091519
            15    2       5.346969      5.443733      3.617992     0.384580   -0.259510   -0.089129
            16    2       3.625168      1.840429      5.432042    -0.142875   -0.996328   -0.141635
            17    0       5.441542      3.610793      5.426036    -0.297760   -0.284284    0.482631
            18    1       7.297895      5.348586      5.413695     0.690537    1.811237    0.515590
            19    2      -0.028335      3.572096      3.606319     0.539626    0.383606    0.501110
            20    2       1.909378      5.334696      3.655568    -1.746273    0.017589   -1.094575
            21    0       3.546146      7.179557      3.627058     2.355920   -0.450451   -0.217274
            22    1       1.834662      3.644933      5.460801    -0.937845   -1.310235   -0.796825
            23    2       3.590539      5.392852      5.479268     0.887050    0.398107   -0.054013
            24    2       5.392792      7.116382      5.318447     0.175674    0.681327    0.936670
            25    0       3.558896      3.646974      7.226436     0.620907    0.351183    0.454652
            26    1       5.485197      5.406457      7.265638     0.552614    0.493579    0.784989
            27    2       7.255094      7.165820      7.246992    -0.901095    0.107078   -0.535064
 Energy
          8.253521745844
 PlusStress:  xx          yy          zz          yz          xz          xy
        82.68183    77.61452    83.09108    -0.50742    -3.99371    -0.62329
END_CFG

BEGIN_CFG
 Size
    27
 Supercell
         0.000000      5.415000      5.415000
         5.415000      0.000000      5.415000
         5.415000      5.415000      0.000000
 AtomData:  id type       cartes_x      cartes_y      cartes_z           fx          fy          fz
             1    0      -0.011779     -0.050883      0.015212    -1.267034    1.546613   -1.425596
             2    1       1.870408      1.641432     -0.074601    -1.833723    1.347318    1.888321
             3    2       3.644094      3.592863     -0.011862     0.025211   -0.163690   -0.589948
             4    2       1.743053      0.067675      1.894400     0.664641   -1.153138   -0.467434
             5    0       3.623749      1.849342      1.812376     0.584420   -1.918612   -0.830747
             6    1       5.358349      3.632990      1.739656     0.904498   -0.511978    1.207200
             7    2       3.711865      0.001462      3.617482    -0.568966    0.156648    0.188152
             8    2       5.359887      1.865286      3.599078     0.675186   -1.107759    0.335793
             9    0       7.186114      3.608609      3.621186    -0.258293    0.624071   -1.114462
            10    1       0.023674      1.817775      1.843746    -0.728139   -0.072483   -0.764585
            11    2       2.008881      3.608486      1.771750    -1.645546    0.289587    0.333895
            12    2       3.512334      5.471892      1.893718     1.011717   -0.398714   -1.202161
            13    0       1.789191      1.752080      3.580738     0.570388    0.950259    1.941854
            14    1       3.654830      3.701334      3.654131    -0.332689   -0.801110   -0.126394
            15    2       5.335141      5.448432      3.618887     0.570087   -0.370993   -0.114632
            16    2       3.626609      1.836009      5.434139    -0.122965   -0.854768   -0.137008
            17    0       5.445328      3.609928      5.429047    -0.214471   -0.221236    0.628030
            18    1       7.319896      5.346556      5.417685     0.392758    1.742817    0.369718
            19    2      -0.028508      3.569406      3.611381     0.533731    0.310630    0.434824
            20    2       1.914608      5.318392      3.652606    -1.888015    0.107761   -0.988572
            21    0       3.541012      7.168025      3.630835     2.353992   -0.117130   -0.392226
            22    1       1.835588      3.644840      5.465726    -0.984203   -1.359734   -0.864703
            23    2       3.594070      5.393253      5.490426     0.960652    0.324996   -0.030331
            24    2       5.389299      7.101562      5.306239     0.246068    0.770634    1.128924
            25    0       3.549681      3.656287      7.228605     0.861616    0.193117    0.566162
            26    1       5.503926      5.409062      7.281585     0.362598    0.297167    0.535148
            27    2       7.253271      7.152840      7.246977    -0.873520    0.389726   -0.509220
 Energy
          8.421208260628
 PlusStress:  xx          yy          zz          yz          xz          xy
        83.08295    77.71116    83.56916    -0.46210    -3.70565    -0.63649
END_CFG

BEGIN_CFG
 Size
    27
 Supercell
         0.000000      5.415000      5.415000
         5.415000      0.000000      5.415000
         5.415000      5.415000      0.000000
 AtomData:  id type       cartes_x      cartes_y      cartes_z           fx          fy          fz
             1    0      -0.019692     -0.054192      0.011363    -1.106427    1.591756   -1.263051
             2    1       1.871081      1.620725     -0.074728    -1.902441    1.543698    1.862207
             3    2       3.651987      3.590418     -0.019551    -0.088784   -0.288163   -0.605786
             4    2       1.741035      0.067062      1.906318     0.631592   -1.170048   -0.597584
             5    0       3.628494      1.849542      1.809580     0.514342   -1.935310   -0.708268
             6    1       5.354690      3.633709      1.735577     0.912847   -0.515628    1.297099
             7    2       3.725177      0.003609      3.623011    -0.723388    0.135738    0.046385
             8    2       5.357733      1.859442      3.600214     0.692644   -0.934950    0.381878
             9    0       7.179050      3.611844      3.618078    -0.183564    0.467869   -0.951668
            10    1       0.023618      1.817918      1.846499    -0.761341   -0.007105   -0.808853
            11    2       2.026560      3.614367      1.770546    -1.748771    0.128751    0.319069
            12    2       3.503281      5.477544      1.895463     1.234398   -0.448894   -1.201446
            13    0       1.787330      1.745705      3.582903     0.723689    1.100548    1.919497
            14    1       3.659704      3.715439      3.661046    -0.313931   -1.136464   -0.162306
            15    2       5.325531      5.451735      3.619384     0.750683   -0.451101   -0.137337
            16    2       3.627561      1.828459      5.435744    -0.088352   -0.652311   -0.122667
            17    0       5.448829      3.608789      5.432855    -0.131697   -0.132662    0.728928
            18    1       7.342775      5.348459      5.422514     0.059138    1.576333    0.198331
            19    2      -0.026614      3.567951      3.618111     0.503711    0.219716    0.336592
            20    2       1.912562      5.302489      3.645947    -1.896891    0.232263   -0.808649
            21    0       3.538762      7.156304      3.634131     2.206150    0.160455   -0.500603
            22    1       1.834358      3.641693      5.468755    -0.969012   -1.331943   -0.897934
            23    2       3.601210      5.394818      5.501420     0.951781    0.240989   -0.045591
            24    2       5.386841      7.089612      5.298315     0.313598    0.835789    1.275047
            25    0       3.541528      3.665815      7.231441     1.074749    0.026631    0.639577
            26    1       5.523496      5.412332      7.298731     0.114674    0.069723    0.255563
            27    2       7.248115      7.141384      7.245016    -0.769395    0.674321   -0.448428
 Energy
          8.502852870954
 PlusStress:  xx          yy          zz          yz          xz          xy
        83.18461    77.47976    83.74279    -0.45257    -3.34613    -0.52382
END_CFG

BEGIN_CFG
 Size
    27
 Supercell
         0.000000      5.415000      5.415000
         5.415000      0.000000      5.415000
         5.415000      5.415000      0.000000
 AtomData:  id type       cartes_x      cartes_y      cartes_z           fx          fy          fz
             1    0      -0.028960     -0.055580      0.005950    -0.920319    1.542706   -1.046740
             2    1       1.867434      1.603577     -0.070598    -1.802068    1.665397    1.706640
             3    2       3.659586      3.586871     -0.029592    -0.210218   -0.399897   -0.561875
             4    2       1.741485      0.061977      1.915956     0.565275   -1.085676   -0.693751
             5    0       3.633886      1.847338      1.805924     0.412456   -1.876441   -0.566526
             6    1       5.353085      3.633304      1.734352     0.870007   -0.488325    1.305010
             7    2       3.735844      0.006269      3.628753    -0.860461    0.100413   -0.120290
             8    2       5.358081      1.850005      3.602692     0.682148   -0.722545    0.415219
             9    0       7.171739      3.615665      3.613786    -0.095649    0.301562   -0.727743
            10    1       0.021870      1.818071      1.847443    -0.734556    0.021411   -0.770096
            11    2       2.037448      3.620719      1.770515    -1.753881   -0.049565    0.290663
            12    2       3.498988      5.481558      1.892564     1.380351   -0.483257   -1.099081
            13    0       1.786334      1.740688      3.587419     0.817041    1.189012    1.780462
            14    1       3.663875      3.726982      3.667661    -0.320347   -1.388043   -0.197798
            15    2       5.318842      5.453368      3.619392     0.912229   -0.489697   -0.150640
            16    2       3.628152      1.818553      5.436905    -0.039426   -0.396543   -0.101741
            17    0       5.452150      3.607484      5.437588    -0.053133   -0.029544    0.782208
            18    1       7.365793      5.353926      5.427813    -0.292846    1.321641    0.017099
            19    2      -0.022769      3.567388      3.626142     0.451154    0.115844    0.211737
            20    2       1.903216      5.287456      3.636285    -1.745940    0.376064   -0.562160
            21    0       3.539217      7.144744      3.636801     1.928195    0.362466   -0.536995
            22    1       1.831011      3.635542      5.469819    -0.893679   -1.233882   -0.891171
            23    2       3.611923      5.397218      5.512186     0.861546    0.156669   -0.099253
            24    2       5.385694      7.080761      5.295227     0.376045    0.871291    1.361123
            25    0       3.534698      3.675349      7.235034     1.253671   -0.146379    0.668823
            26    1       5.543343      5.415765      7.316447    -0.194599   -0.172268   -0.052449
            27    2       7.240025      7.132538      7.241335    -0.592998    0.937583   -0.360675
 Energy
          8.492153645197
 PlusStress:  xx          yy          zz          yz          xz          xy
        82.89768    76.87942    83.53175    -0.48408    -2.90346    -0.25604
END_CFG

BEGIN_CFG
 Size
    27
 Supercell
         0.000000      5.415000      5.415000
         5.415000      0.000000      5.415000
         5.415000      5.415000      0.000000
 AtomData:  id type       cartes_x      cartes_y      cartes_z           fx          fy          fz
             1    0      -0.039360     -0.055110     -0.000766    -0.719219    1.398932   -0.789337
             2    1       1.859672      1.590259     -0.062548    -1.550132    1.719025    1.450109
             3    2       3.666460      3.581812     -0.041828    -0.329356   -0.484907   -0.459802
             4    2       1.744137      0.052744      1.922958     0.470555   -0.902111   -0.752860
             5    0       3.639797      1.842801      1.801586     0.288441   -1.747184   -0.407856
             6    1       5.353433      3.631828      1.736003     0.776146   -0.434467    1.227258
             7    2       3.743341      0.009325      3.634082    -0.971332    0.054991   -0.301123
             8    2       5.360876      1.837794      3.606633     0.644329   -0.484316    0.429842
             9    0       7.164284      3.619865      3.608580     0.001874    0.126901   -0.453317
            10    1       0.018486      1.818298      1.846672    -0.649394    0.015394   -0.655634
            11    2       2.041543      3.626838      1.771555    -1.665536   -0.232433    0.247717
            12    2       3.500031      5.483831      1.885411     1.432392   -0.504865   -0.898155