BEGIN_CFG
 Size
    4
 Supercell
         3.610000      0.000000      0.000000
         0.000000      3.610000      0.000000
         0.000000      0.000000      3.610000
 AtomData:  id type       cartes_x      cartes_y      cartes_z           fx          fy          fz
             1    0       0.000000      0.000000      0.000000    -0.000000   -0.000000   -0.000000
             2    0       0.000000      1.805000      1.805000    -0.000000    0.000000    0.000000
             3    0       1.805000      0.000000      1.805000     0.000000   -0.000000   -0.000000
             4    0       1.805000      1.805000      0.000000    -0.000000   -0.000000   -0.000000
 Energy
         -0.023082330155
 PlusStress:  xx          yy          zz          yz          xz          xy
        -0.64101    -0.64101    -0.64101     0.00000    -0.00000     0.00000
END_CFG

BEGIN_CFG
 Size
    4
 Supercell
         3.610000      0.000000      0.000000
         0.000000      3.610000      0.000000
         0.000000      0.000000      3.610000
 AtomData:  id type       cartes_x      cartes_y      cartes_z           fx          fy          fz
             1    0       0.005511     -0.018809      0.013573    -0.100557    0.068676   -0.203888
             2    0       0.017011      1.769714      1.781449    -0.185843    0.168618    0.292242
             3    0       1.807312     -0.005720      1.804696     0.077065   -0.027801    0.119830
             4    0       1.789572      1.820905      0.014067     0.209336   -0.209492   -0.208183
 Energy
         -0.008216810092
 PlusStress:  xx          yy          zz          yz          xz          xy
        -0.57212    -0.58166    -0.59039     0.01504    -0.02790    -0.02231
END_CFG

BEGIN_CFG
 Size
    4
 Supercell
         3.610000      0.000000      0.000000
         0.000000      3.610000      0.000000
         0.000000      0.000000      3.610000
 AtomData:  id type       cartes_x      cartes_y      cartes_z           fx          fy          fz
             1    0       0.010644     -0.037358      0.026376    -0.198882    0.134272   -0.398242
             2    0       0.033319      1.735069      1.759003    -0.369577    0.335464    0.576904
             3    0       1.809913     -0.011546      1.804842     0.149810   -0.055876    0.231435
             4    0       1.774936      1.836013      0.027349     0.418650   -0.413860   -0.410098
 Energy
          0.034068226544
 PlusStress:  xx          yy          zz          yz          xz          xy
        -0.37661    -0.41302    -0.44799     0.05710    -0.10638    -0.08496
END_CFG

BEGIN_CFG
 Size
    4
 Supercell
         3.610000      0.000000      0.000000
         0.000000      3.610000      0.000000
         0.000000      0.000000      3.610000
 AtomData:  id type       cartes_x      cartes_y      cartes_z           fx          fy          fz
             1    0       0.015028     -0.055396      0.037675    -0.290838    0.193988   -0.572911
             2    0       0.048229      1.701703      1.738742    -0.545033    0.497521    0.842966
             3    0       1.813076     -0.017586      1.805856     0.213040   -0.084339    0.326271
             4    0       1.761885      1.849548      0.039081     0.622831   -0.607170   -0.596326
 Energy
          0.096925896132
 PlusStress:  xx          yy          zz          yz          xz          xy
        -0.08705    -0.16290    -0.24108     0.11752    -0.22034    -0.17568
END_CFG

BEGIN_CFG
 Size
    4
 Supercell
         3.610000      0.000000      0.000000
         0.000000      3.610000      0.000000
         0.000000      0.000000      3.610000
 AtomData:  id type       cartes_x      cartes_y      cartes_z           fx          fy          fz
             1    0       0.018316     -0.072697      0.046808    -0.369228    0.245522   -0.716973
             2    0       0.061073      1.670232      1.721677    -0.699969    0.650188    1.074476
             3    0       1.817039     -0.023948      1.808098     0.260301   -0.113056    0.395490
             4    0       1.751196      1.860772      0.048557     0.808896   -0.782654   -0.752993
 Energy
          0.169522404528
 PlusStress:  xx          yy          zz          yz          xz          xy
         0.24652     0.12476    -0.01085     0.18349    -0.34698    -0.27615
END_CFG

BEGIN_CFG
 Size
    4
 Supercell
         3.610000      0.000000      0.000000
         0.000000      3.610000      0.000000
         0.000000      0.000000      3.610000
 AtomData:  id type       cartes_x      cartes_y      cartes_z           fx          fy          fz
             1    0       0.020209     -0.089064      0.053226    -0.424005    0.287251   -0.819430
             2    0       0.071261      1.641241      1.708691    -0.817586    0.787735    1.252113
             3    0       1.821982     -0.030744      1.811828     0.284369   -0.141396    0.430698
             4    0       1.743579      1.869015      0.055179     0.957222   -0.933590   -0.863381
 Energy
          0.238614514100
 PlusStress:  xx          yy          zz          yz          xz          xy
         0.56483     0.39628     0.19543     0.24041    -0.46001    -0.36508
END_CFG

BEGIN_CFG
 Size
    4
 Supercell
         3.610000      0.000000      0.000000
         0.000000      3.610000      0.000000
         0.000000      0.000000      3.610000
 AtomData:  id type       cartes_x      cartes_y      cartes_z           fx          fy          fz
             1    0       0.020499     -0.104337      0.056538    -0.444220    0.318304   -0.870656
             2    0       0.078340      1.615258      1.700466    -0.881228    0.904270    1.357696
             3    0       1.827996     -0.038080      1.817181     0.278634   -0.168241    0.425211
             4    0       1.739601      1.873697      0.058524     1.046814   -1.054333   -0.912252
 Energy
          0.291375913019
 PlusStress:  xx          yy          zz          yz          xz          xy
         0.81204     0.59956     0.33564     0.27472    -0.53566    -0.42218
END_CFG

BEGIN_CFG
 Size
    4
 Supercell
         3.610000      0.000000      0.000000
         0.000000      3.610000      0.000000
         0.000000      0.000000      3.610000
 AtomData:  id type       cartes_x      cartes_y      cartes_z           fx          fy          fz
             1    0       0.019109     -0.118397      0.056548    -0.421085    0.338584   -0.864255
             2    0       0.082064      1.592731      1.697409    -0.880347    0.994547    1.379775
             3    0       1.835061     -0.046060      1.824136     0.238887   -0.192026    0.375564
             4    0       1.739609      1.874354      0.058401     1.062545   -1.141104   -0.891083
 Energy
          0.318804137542
 PlusStress:  xx          yy          zz          yz          xz          xy
         0.94951     0.69796     0.38430     0.27652    -0.55829    -0.43208
END_CFG

BEGIN_CFG
 Size
    4
 Supercell
         3.610000      0.000000      0.000000
         0.000000      3.610000      0.000000
         0.000000      0.000000      3.610000
 AtomData:  id type       cartes_x      cartes_y      cartes_z           fx          fy          fz
             1    0       0.016125     -0.131167      0.053277    -0.351093    0.348591   -0.798529
             2    0       0.082434      1.574007      1.699608    -0.814700    1.054727    1.317507
             3    0       1.843026     -0.054775      1.832505     0.164810   -0.211120    0.282506
             4    0       1.743664      1.870652      0.054888     1.000984   -1.192198   -0.801484
 Energy
          0.318258036626
 PlusStress:  xx          yy          zz          yz          xz          xy
         0.96519     0.68112     0.33971     0.24135    -0.52349    -0.38760
END_CFG

BEGIN_CFG
 Size
    4
 Supercell
         3.610000      0.000000      0.000000
         0.000000      3.610000      0.000000
         0.000000      0.000000      3.610000
 AtomData:  id type       cartes_x      cartes_y      cartes_z           fx          fy          fz
             1    0       0.011814     -0.142610      0.046976    -0.237697    0.349027   -0.677113
             2    0       0.079699      1.559317      1.706827    -0.694497    1.083019    1.180824
             3    0       1.851610     -0.064297      1.841935     0.060463   -0.224267    0.151162
             4    0       1.751533      1.862396      0.048325     0.871731   -1.207779   -0.654874
 Energy
          0.293820213870
 PlusStress:  xx          yy          zz          yz          xz          xy
         0.87457     0.56742     0.22336     0.17129    -0.43743    -0.29171
END_CFG

BEGIN_CFG
 Size
    4
 Supercell
         3.610000      0.000000      0.000000
         0.000000      3.610000      0.000000
         0.000000      0.000000      3.610000
 AtomData:  id type       cartes_x      cartes_y      cartes_z           fx          fy          fz
             1    0       0.006606     -0.152723      0.038105    -0.090840    0.340244   -0.508447
             2    0       0.074315      1.548765      1.718545    -0.536767    1.079914    0.986921
             3    0       1.860417     -0.074675      1.851928    -0.066326   -0.230953   -0.009728
             4    0       1.762724      1.849530      0.039270     0.693933   -1.189205   -0.468747
 Energy
          0.254307197261
 PlusStress:  xx          yy          zz          yz          xz          xy
         0.71264     0.39632     0.07174     0.07518    -0.31385    -0.15753
END_CFG

BEGIN_CFG
 Size
    4
 Supercell
         3.610000      0.000000      0.000000
         0.000000      3.610000      0.000000
         0.000000      0.000000      3.610000
 AtomData:  id type       cartes_x      cartes_y      cartes_z           fx          fy          fz
             1    0       0.001058     -0.161542      0.027305     0.075127    0.321980   -0.304653
             2    0       0.066886      1.542334      1.734021    -0.360226    1.047605    0.755284
             3    0       1.868966     -0.085935      1.861873    -0.205160   -0.231495   -0.188873
             4    0       1.776558      1.832128      0.028432     0.490260   -1.138090   -0.261758
 Energy
          0.210020020763
 PlusStress:  xx          yy          zz          yz          xz          xy
         0.52094     0.21383    -0.07583    -0.03249    -0.17045    -0.00622
END_CFG

BEGIN_CFG
 Size
    4
 Supercell
         3.610000      0.000000      0.000000
         0.000000      3.610000      0.000000
         0.000000      0.000000      3.610000
 AtomData:  id type       cartes_x      cartes_y      cartes_z           fx          fy          fz
             1    0      -0.004200     -0.169135      0.015352     0.244127    0.293453   -0.080262
             2    0       0.058085      1.539898      1.752371    -0.180897    0.988901    0.503564
             3    0       1.876730     -0.098078      1.871093    -0.344332   -0.226859   -0.373401
             4    0       1.792259      1.810390      0.016601     0.281103   -1.055495   -0.049901
 Energy
          0.169709480470
 PlusStress:  xx          yy          zz          yz          xz          xy
         0.33553     0.05784    -0.18844    -0.13403    -0.02643     0.13714
END_CFG

BEGIN_CFG
 Size
    4
 Supercell
         3.610000      0.000000      0.000000
         0.000000      3.610000      0.000000
         0.000000      0.000000      3.610000
 AtomData:  id type       cartes_x      cartes_y      cartes_z           fx          fy          fz
             1    0      -0.008528     -0.175612      0.003095     0.400647    0.254002    0.148852
             2    0       0.048592      1.541228      1.772638    -0.009948    0.906118    0.245591
             3    0       1.883185     -0.111084      1.878889    -0.471813   -0.218289   -0.549544
             4    0       1.809032      1.784634      0.004580     0.081114   -0.941831    0.155102
 Energy
          0.138801916739
 PlusStress:  xx          yy          zz          yz          xz          xy
         0.18021    -0.05045    -0.24991    -0.21193     0.09899     0.24860
END_CFG

BEGIN_CFG
 Size
    4
 Supercell
         3.610000      0.000000      0.000000
         0.000000      3.610000      0.000000
         0.000000      0.000000      3.610000
 AtomData:  id type       cartes_x      cartes_y      cartes_z           fx          fy          fz
             1    0      -0.011334     -0.181122     -0.008598     0.531269    0.203896    0.366344
             2    0       0.039056      1.546006      1.793843     0.146228    0.800548   -0.008359
             3    0       1.887846     -0.124922      1.884595    -0.575962   -0.206734   -0.703308
             4    0       1.826118      1.755293     -0.006854    -0.101535   -0.797710    0.345323
 Energy
          0.119053379785
 PlusStress:  xx          yy          zz          yz          xz          xy
         0.06539    -0.10742    -0.25954    -0.25245     0.18803     0.31010
END_CFG

BEGIN_CFG
 Size
    4
 Supercell
         3.610000      0.000000      0.000000
         0.000000      3.610000      0.000000
         0.000000      0.000000      3.610000
 AtomData:  id type       cartes_x      cartes_y      cartes_z           fx          fy          fz
             1    0      -0.012125     -0.185856     -0.018904     0.625834    0.144993    0.556648
             2    0       0.030069      1.553832      1.815025     0.284592    0.672864   -0.250068
             3    0       1.890323     -0.139546      1.887632    -0.646687   -0.192405   -0.821580
             4    0       1.842825      1.722915     -0.016983    -0.263738   -0.625452    0.515001
 Energy
          0.109270187088
 PlusStress:  xx          yy          zz          yz          xz          xy
        -0.00928    -0.12264    -0.22903    -0.24879     0.22699     0.31335
END_CFG

BEGIN_CFG
 Size
    4
 Supercell
         3.610000      0.000000      0.000000
         0.000000      3.610000      0.000000
         0.000000      0.000000      3.610000
 AtomData:  id type       cartes_x      cartes_y      cartes_z           fx          fy          fz
             1    0      -0.010542     -0.190037     -0.027103     0.678196    0.080709    0.706594
             2    0       0.022154      1.564218      1.835269     0.403194    0.524206   -0.471440
             3    0       1.890347     -0.154902      1.887553    -0.676710   -0.174498   -0.893601
             4    0       1.858540      1.688155     -0.025164    -0.404680   -0.430417    0.658446
 Energy
          0.106499020590
 PlusStress:  xx          yy          zz          yz          xz          xy
        -0.05122    -0.11258    -0.17759    -0.20297     0.20980     0.26154
END_CFG

BEGIN_CFG
 Size
    4
 Supercell
         3.610000      0.000000      0.000000
         0.000000      3.610000      0.000000
         0.000000      0.000000      3.610000
 AtomData:  id type       cartes_x      cartes_y      cartes_z           fx          fy          fz
             1    0      -0.006390     -0.193909     -0.032628     0.686730    0.015436    0.807159
             2    0       0.015760      1.576599      1.853736     0.499104    0.357123   -0.663187
             3    0       1.887808     -0.170922      1.884087    -0.662960   -0.151341   -0.912544
             4    0       1.872727      1.651755     -0.030854    -0.522874   -0.221219    0.768572
 Energy
          0.107249454366
 PlusStress:  xx          yy          zz          yz          xz          xy
        -0.07115    -0.09467    -0.12657    -0.12561     0.14125     0.16857
END_CFG

BEGIN_CFG
 Size
    4
 Supercell
         3.610000      0.000000      0.000000
         0.000000      3.610000      0.000000
         0.000000      0.000000      3.610000
 AtomData:  id type       cartes_x      cartes_y      cartes_z           fx          fy          fz
             1    0       0.000363     -0.197721     -0.035099     0.653880   -0.046504    0.854449
             2    0       0.011252      1.590339      1.869697     0.567354    0.176006   -0.814783
             3    0       1.882757     -0.187516      1.877164    -0.606922   -0.121050   -0.876350
             4    0       1.884938      1.614510     -0.033638    -0.614311   -0.008452    0.836684
 Energy
          0.108486981792
 PlusStress:  xx          yy          zz          yz          xz          xy
        -0.07952    -0.08275    -0.09443    -0.03362     0.03769     0.05579
END_CFG

BEGIN_CFG
 Size
    4
 Supercell
         3.610000      0.000000      0.000000
         0.000000      3.610000      0.000000
         0.000000      0.000000      3.610000
 AtomData:  id type       cartes_x      cartes_y      cartes_z           fx          fy          fz
             1    0       0.009592     -0.201707     -0.034336     0.584878   -0.101857    0.849380
             2    0       0.008891      1.604748      1.882577     0.601600   -0.013297   -0.915943
             3    0       1.875410     -0.204569      1.866925    -0.513877   -0.082404   -0.787413
             4    0       1.894824      1.577231     -0.033256    -0.672601    0.197558    0.853975
 Energy
          0.108391778164
 PlusStress:  xx          yy          zz          yz          xz          xy
        -0.08320    -0.08397    -0.09240     0.05349    -0.07604    -0.05244
END_CFG

BEGIN_CFG
 Size
    4
 Supercell
         3.610000      0.000000      0.000000
         0.000000      3.610000      0.000000
         0.000000      0.000000      3.610000
 AtomData:  id type       cartes_x      cartes_y      cartes_z           fx          fy          fz
             1    0       0.021034     -0.206079     -0.030359     0.485740   -0.148972    0.796066
             2    0       0.008806      1.619104      1.891988     0.596285   -0.204388   -0.959189
             3    0       1.866121     -0.221934      1.853708    -0.390875   -0.035665   -0.651222
             4    0       1.902162      1.540702     -0.029643    -0.691150    0.389025    0.814345
 Energy
          0.106887271835
 PlusStress:  xx          yy          zz          yz          xz          xy
        -0.08260    -0.09754    -0.12125     0.11741    -0.17293    -0.13310
END_CFG

BEGIN_CFG
 Size
    4
 Supercell
         3.610000      0.000000      0.000000
         0.000000      3.610000      0.000000
         0.000000      0.000000      3.610000
 AtomData:  id type       cartes_x      cartes_y      cartes_z           fx          fy          fz
             1    0       0.034313     -0.211017     -0.023371     0.361411   -0.187789    0.699786
             2    0       0.010979      1.632678      1.897766     0.549167   -0.391229   -0.942322
             3    0       1.855356     -0.239433      1.838032    -0.244512    0.017130   -0.474652
             4    0       1.906881      1.505653     -0.022948    -0.666066    0.561888    0.717188
 Energy
          0.105858396975
 PlusStress:  xx          yy          zz          yz          xz          xy
        -0.07043    -0.11489    -0.17029     0.14391    -0.23083    -0.16792
END_CFG

BEGIN_CFG
 Size
    4
 Supercell
         3.610000      0.000000      0.000000
         0.000000      3.610000      0.000000
         0.000000      0.000000      3.610000
 AtomData:  id type       cartes_x      cartes_y      cartes_z           fx          fy          fz
             1    0       0.048957     -0.216667     -0.013736     0.214934   -0.219286    0.565375
             2    0       0.015233      1.644761      1.899972     0.462891   -0.568730   -0.869342
             3    0       1.843672     -0.256863      1.820568    -0.079611    0.072507   -0.264612
             4    0       1.909073      1.472742     -0.013539    -0.598214    0.715508    0.568579
 Energy
          0.108831878828
 PlusStress:  xx          yy          zz          yz          xz          xy
        -0.03309    -0.12131    -0.21927     0.12447    -0.23702    -0.14580
END_CFG

BEGIN_CFG
 Size
    4
 Supercell
         3.610000      0.000000      0.000000
         0.000000      3.610000      0.000000
         0.000000      0.000000      3.610000
 AtomData:  id type       cartes_x      cartes_y      cartes_z           fx          fy          fz
             1    0       0.064411     -0.223152     -0.001962     0.047999   -0.244590    0.396903
             2    0       0.021241      1.654676      1.898880     0.344856   -0.732855   -0.749541
             3    0       1.831693     -0.274016      1.802110     0.100710    0.126422   -0.027693
             4    0       1.908996      1.442553     -0.001980    -0.493565    0.851023    0.380331
 Energy
          0.119995327497
 PlusStress:  xx          yy          zz          yz          xz          xy
         0.04483    -0.09929    -0.24356     0.05711    -0.18918    -0.06429
END_CFG

BEGIN_CFG
 Size
    4
 Supercell
         3.610000      0.000000      0.000000
         0.000000      3.610000      0.000000
         0.000000      0.000000      3.610000
 AtomData:  id type       cartes_x      cartes_y      cartes_z           fx          fy          fz
             1    0       0.080042     -0.230566      0.011313    -0.137179   -0.264215    0.198770
             2    0       0.028560      1.661800      1.894944     0.205755   -0.880289   -0.595364
             3    0       1.820102     -0.290685      1.783557     0.293410    0.175186    0.228958
             4    0       1.907043      1.415603      0.011020    -0.361986    0.969318    0.167635
 Energy
          0.142666399300
 PlusStress:  xx          yy          zz          yz          xz          xy
         0.17408    -0.03369    -0.22156    -0.05321    -0.09348     0.06948
END_CFG

BEGIN_CFG
 Size
    4
 Supercell
         3.610000      0.000000      0.000000
         0.000000      3.610000      0.000000
         0.000000      0.000000      3.610000
 AtomData:  id type       cartes_x      cartes_y      cartes_z           fx          fy          fz
             1    0       0.095149     -0.238986      0.025340    -0.335203   -0.277565   -0.022285
             2    0       0.036663      1.665571      1.888744     0.058099   -1.007814   -0.420281
             3    0       1.809629     -0.306687      1.765880     0.492916    0.216309    0.495869
             4    0       1.903712      1.392342      0.024655    -0.215812    1.069070   -0.053304
 Energy
          0.177594584220
 PlusStress:  xx          yy          zz          yz          xz          xy
         0.35382     0.08172    -0.14265    -0.19445     0.03780     0.23872
END_CFG

BEGIN_CFG
 Size
    4
 Supercell
         3.610000      0.000000      0.000000
         0.000000      3.610000      0.000000
         0.000000      0.000000      3.610000
 AtomData:  id type       cartes_x      cartes_y      cartes_z           fx          fy          fz
             1    0       0.108982     -0.248461      0.039282    -0.535010   -0.283084   -0.254799
             2    0       0.044991      1.665505      1.880942    -0.084991   -1.111501   -0.237553
             3    0       1.801030     -0.321865      1.750091     0.688537    0.248909    0.759188
             4    0       1.899557      1.373151      0.038088    -0.068536    1.145676   -0.266836
 Energy
          0.221614204018
 PlusStress:  xx          yy          zz          yz          xz          xy
         0.56660     0.23828    -0.01327    -0.34800     0.18766     0.41860
END_CFG

BEGIN_CFG
 Size
    4
 Supercell
         3.610000      0.000000      0.000000
         0.000000      3.610000      0.000000
         0.000000      0.000000      3.610000
 AtomData:  id type       cartes_x      cartes_y      cartes_z           fx          fy          fz
             1    0       0.120780     -0.259014      0.052257    -0.718826   -0.278908   -0.481248
             2    0       0.053003      1.661203      1.872230    -0.210623   -1.186187   -0.059750
             3    0       1.795048     -0.336094      1.737190     0.863168    0.273692    0.999654
             4    0       1.895135      1.358325      0.050510     0.066281    1.191403   -0.458655
 Energy
          0.267245236895
 PlusStress:  xx          yy          zz          yz          xz          xy
         0.77749     0.40981     0.14115    -0.49047     0.33507     0.57966
END_CFG

BEGIN_CFG
 Size
    4
 Supercell
         3.610000      0.000000      0.000000
         0.000000      3.610000      0.000000
         0.000000      0.000000      3.610000
 AtomData:  id type       cartes_x      cartes_y      cartes_z           fx          fy          fz
             1    0       0.129845     -0.270631      0.063405    -0.864082   -0.263881   -0.679143
             2    0       0.060222      1.652380      1.863280    -0.307152   -1.225839    0.101502
             3    0       1.792349     -0.349281      1.728092     0.994854    0.292449    1.194012
             4    0       1.890956      1.348041      0.061194     0.176380    1.197272   -0.616370
 Energy
          0.303881095733
 PlusStress:  xx          yy          zz          yz          xz          xy
         0.93980     0.55653     0.28095    -0.59752     0.45649     0.69343
END_CFG

BEGIN_CFG
 Size
    4
 Supercell
         3.610000      0.000000      0.000000
         0.000000      3.610000      0.000000
         0.000000      0.000000      3.610000
 AtomData:  id type       cartes_x      cartes_y      cartes_z           fx          fy          fz
             1    0       0.135625     -0.283254      0.071975    -0.948744   -0.238459   -0.825369
             2    0       0.066281      1.638883      1.854705    -0.365742   -1.224806    0.235994
             3    0       1.793433     -0.361352      1.723537     1.061922    0.306925    1.319626
             4    0       1.887440      1.342322      0.069539     0.252563    1.156340   -0.730251
 Energy
          0.320671050658
 PlusStress:  xx          yy          zz          yz          xz          xy
         1.00756     0.63587     0.36373    -0.64936     0.53012     0.73899
END_CFG

BEGIN_CFG
 Size
    4
 Supercell
         3.610000      0.000000      0.000000
         0.000000      3.610000      0.000000
         0.000000      0.000000      3.610000
 AtomData:  id type       cartes_x      cartes_y      cartes_z           fx          fy          fz
             1    0       0.137797     -0.296788      0.077411    -0.958587   -0.204845   -0.902691
             2    0       0.070957      1.620716      1.847014    -0.382077   -1.179833    0.335915
             3    0       1.798557     -0.372253      1.724003     1.050223    0.317716    1.360967
             4    0       1.884874      1.341014      0.075114     0.290442    1.066962   -0.794191
 Energy
          0.310311893438
 PlusStress:  xx          yy          zz          yz          xz          xy
         0.95090     0.61674     0.35885    -0.63625     0.54205     0.70861
END_CFG

BEGIN_CFG
 Size
    4
 Supercell
         3.610000      0.000000      0.000000
         0.000000      3.610000      0.000000
         0.000000      0.000000      3.610000
 AtomData:  id type       cartes_x      cartes_y      cartes_z           fx          fy          fz
             1    0       0.136324     -0.311105      0.079419    -0.892784   -0.166460   -0.905242
             2    0       0.074189      1.598050      1.840586    -0.357441   -1.091571    0.396715
             3    0       1.807674     -0.381942      1.729645     0.959123    0.323481    1.314705
             4    0       1.883403      1.343776      0.077676     0.291102    0.934550   -0.806178
 Energy
          0.272031113181
 PlusStress:  xx          yy          zz          yz          xz          xy
         0.76771     0.49096     0.25868    -0.56191     0.49177     0.61017
END_CFG

BEGIN_CFG
 Size
    4
 Supercell
         3.610000      0.000000      0.000000
         0.000000      3.610000      0.000000
         0.000000      0.000000      3.610000
 AtomData:  id type       cartes_x      cartes_y      cartes_z           fx          fy          fz
             1    0       0.131459     -0.326060      0.077993    -0.764215   -0.126837   -0.839675
             2    0       0.076070      1.571224      1.835653    -0.298348   -0.964874    0.417530
             3    0       1.820438     -0.390399      1.740284     0.802261    0.321263    1.190226
             4    0       1.883030      1.350102      0.077182     0.260303    0.770448   -0.768081
 Energy
          0.212123454303
 PlusStress:  xx          yy          zz          yz          xz          xy
         0.48591     0.27696     0.08125    -0.44271     0.39320     0.46511
END_CFG

BEGIN_CFG
 Size
    4
 Supercell
         3.610000      0.000000      0.000000
         0.000000      3.610000      0.000000
         0.000000      0.000000      3.610000
 AtomData:  id type       cartes_x      cartes_y      cartes_z           fx          fy          fz
             1    0       0.123692     -0.341500      0.073383    -0.594146   -0.088699   -0.721200
             2    0       0.076826      1.540724      1.832292    -0.214810   -0.807433    0.400820
             3    0       1.836248     -0.397633      1.755444     0.602482    0.307586    1.005116
             4    0       1.883637      1.359366      0.073778     0.206473    0.588547   -0.684736
 Energy
          0.141836070952
 PlusStress:  xx          yy          zz          yz          xz          xy
         0.15536     0.01432    -0.13632    -0.30312     0.27043     0.30287
END_CFG

BEGIN_CFG
 Size
    4
 Supercell
         3.610000      0.000000      0.000000
         0.000000      3.610000      0.000000
         0.000000      0.000000      3.610000
 AtomData:  id type       cartes_x      cartes_y      cartes_z           fx          fy          fz
             1    0       0.113671     -0.357281      0.066042    -0.404316   -0.053484   -0.567144
             2    0       0.076773      1.507151      1.830439    -0.117642   -0.627576    0.351513