BEGIN_CFG
 Size
    32
 Supercell
         7.220000      0.000000      0.000000
         0.000000      7.220000      0.000000
         0.000000      0.000000      7.220000
 AtomData:  id type       cartes_x      cartes_y      cartes_z           fx          fy          fz
             1    0       0.000000      0.000000      0.000000     0.000000    0.000000    0.000000
             2    0       0.000000      1.805000      1.805000     0.000000    0.000000    0.000000
             3    0       1.805000      0.000000      1.805000     0.000000    0.000000    0.000000
             4    0       1.805000      1.805000      0.000000     0.000000    0.000000    0.000000
             5    0       0.000000      0.000000      3.610000     0.000000    0.000000    0.000000
             6    0       0.000000      1.805000      5.415000     0.000000    0.000000   -0.000000
             7    0       1.805000      0.000000      5.415000     0.000000    0.000000   -0.000000
             8    0       1.805000      1.805000      3.610000     0.000000    0.000000   -0.000000
             9    0       0.000000      3.610000      0.000000     0.000000   -0.000000    0.000000
            10    0       0.000000      5.415000      1.805000     0.000000   -0.000000    0.000000
            11    0       1.805000      3.610000      1.805000     0.000000   -0.000000    0.000000
            12    0       1.805000      5.415000      0.000000     0.000000   -0.000000    0.000000
            13    0       0.000000      3.610000      3.610000     0.000000   -0.000000    0.000000
            14    0       0.000000      5.415000      5.415000     0.000000   -0.000000   -0.000000
            15    0       1.805000      3.610000      5.415000     0.000000   -0.000000   -0.000000
            16    0       1.805000      5.415000      3.610000     0.000000   -0.000000    0.000000
            17    0       3.610000      0.000000      0.000000     0.000000    0.000000    0.000000
            18    0       3.610000      1.805000      1.805000    -0.000000    0.000000    0.000000
            19    0       5.415000      0.000000      1.805000    -0.000000    0.000000    0.000000
            20    0       5.415000      1.805000      0.000000    -0.000000    0.000000    0.000000
            21    0       3.610000      0.000000      3.610000     0.000000    0.000000    0.000000
            22    0       3.610000      1.805000      5.415000    -0.000000    0.000000   -0.000000
            23    0       5.415000      0.000000      5.415000    -0.000000   -0.000000   -0.000000
            24    0       5.415000      1.805000      3.610000    -0.000000    0.000000    0.000000
            25    0       3.610000      3.610000      0.000000    -0.000000    0.000000    0.000000
            26    0       3.610000      5.415000      1.805000     0.000000   -0.000000    0.000000
            27    0       5.415000      3.610000      1.805000    -0.000000   -0.000000    0.000000
            28    0       5.415000      5.415000      0.000000    -0.000000   -0.000000    0.000000
            29    0       3.610000      3.610000      3.610000    -0.000000   -0.000000   -0.000000
            30    0       3.610000      5.415000      5.415000     0.000000   -0.000000   -0.000000
            31    0       5.415000      3.610000      5.415000    -0.000000   -0.000000   -0.000000
            32    0       5.415000      5.415000      3.610000    -0.000000   -0.000000    0.000000
 Energy
         -0.180199875180
 PlusStress:  xx          yy          zz          yz          xz          xy
        -4.99196    -4.99196    -4.99196    -0.00000     0.00000     0.00000
END_CFG

BEGIN_CFG
 Size
    32
 Supercell
         7.220000      0.000000      0.000000
         0.000000      7.220000      0.000000
         0.000000      0.000000      7.220000
 AtomData:  id type       cartes_x      cartes_y      cartes_z           fx          fy          fz
             1    0       0.005511     -0.018809      0.013573    -0.029104    0.089984   -0.172613
             2    0       0.017011      1.769714      1.781449    -0.082513    0.207530    0.209243
             3    0       1.807312     -0.005720      1.804696     0.056796    0.035268    0.032051
             4    0       1.789572      1.820905      0.014067     0.111825   -0.173153   -0.198506
             5    0       0.001194      0.020387      3.618455    -0.029897   -0.181739   -0.031920
             6    0      -0.015541      1.811669      5.397658     0.093163   -0.099526    0.173389
             7    0       1.820888     -0.000903      5.411657    -0.113447    0.149571    0.133600
             8    0       1.792685      1.827111      3.607205     0.127876   -0.145526    0.013476
             9    0      -0.007747      3.603631      0.009627     0.049629    0.100092   -0.009645
            10    0       0.006609      5.422465      1.812792    -0.024034   -0.092342    0.013520
            11    0       1.843734      3.602650      1.795736    -0.303510    0.071085    0.081732
            12    0       1.790282      5.426141      0.020419     0.142591   -0.089450   -0.114669
            13    0      -0.002061      3.594805      3.595088     0.078781    0.095611   -0.010173
            14    0       0.011767      5.428443      5.424823    -0.098802   -0.096731   -0.121350
            15    0       1.792964      3.614199      5.417110     0.022854    0.032899    0.023050
            16    0       1.808955      5.430761      3.614044    -0.108834   -0.157823   -0.040943
            17    0       3.622279      0.001222      0.005229    -0.148200    0.004995   -0.031188
            18    0       3.621417      1.778646      1.799218    -0.066238    0.159193    0.021668
            19    0       5.406493     -0.011555      1.800024     0.078702   -0.061963    0.085342
            20    0       5.442038      1.789341      0.017512    -0.161439    0.122907   -0.120698
            21    0       3.579564     -0.006057      3.612944     0.244283    0.058843    0.010034
            22    0       3.620602      1.817863      5.429348    -0.038560   -0.034554   -0.065685
            23    0       5.408693     -0.008362      5.430517     0.035791    0.019235   -0.171543
            24    0       5.411540      1.781928      3.589503    -0.067172    0.110376    0.097096
            25    0       3.593371      3.618992      0.002576     0.196669   -0.090898   -0.047626
            26    0       3.622488      5.407273      1.807867    -0.084451    0.076853   -0.048315
            27    0       5.426314      3.604405      1.813261    -0.086307   -0.090913   -0.119467
            28    0       5.403028      5.408434     -0.006904     0.115488   -0.047000    0.077430
            29    0       3.588372      3.618807      3.601510     0.166496   -0.116646    0.117603
            30    0       3.610226      5.423695      5.423076    -0.015893   -0.120985   -0.053556
            31    0       5.427034      3.608219      5.407344    -0.097238    0.008818    0.012287
            32    0       5.413558      5.384483      3.583828     0.034694    0.255991    0.256377
 Energy
         -0.112879115006
 PlusStress:  xx          yy          zz          yz          xz          xy
        -4.73331    -4.74861    -4.71876     0.04551     0.00072    -0.03257
END_CFG

BEGIN_CFG
 Size
    32
 Supercell
         7.220000      0.000000      0.000000
         0.000000      7.220000      0.000000
         0.000000      0.000000      7.220000
 AtomData:  id type       cartes_x      cartes_y      cartes_z           fx          fy          fz
             1    0       0.010913     -0.037275      0.026492    -0.075993    0.168896   -0.338956
             2    0       0.033703      1.735217      1.758693    -0.180486    0.406529    0.448671
             3    0       1.809838     -0.011305      1.804515     0.117811    0.069631    0.063441
             4    0       1.774573      1.836155      0.027383     0.240212   -0.334022   -0.404442
             5    0       0.002280      0.040084      3.626787    -0.038554   -0.358677   -0.067278
             6    0      -0.030732      1.817964      5.380971     0.176256   -0.179349    0.336760
             7    0       1.836343     -0.001241      5.408817    -0.230784    0.284628    0.269809
             8    0       1.780853      1.848668      3.604462     0.250889   -0.296359    0.022928
             9    0      -0.015299      3.597638      0.019211     0.095684    0.199697   -0.023550
            10    0       0.013123      5.429580      1.820631    -0.055983   -0.178092    0.037813
            11    0       1.881313      3.595569      1.786782    -0.603048    0.136161    0.162428
            12    0       1.776107      5.436939      0.040400     0.294296   -0.194076   -0.230274
            13    0      -0.003822      3.579971      3.580145     0.142571    0.186762   -0.016107
            14    0       0.023154      5.441518      5.434191    -0.187608   -0.183741   -0.226768
            15    0       1.781014      3.618525      5.419306     0.044835    0.058701    0.043632
            16    0       1.812503      5.445924      3.617936    -0.219656   -0.317893   -0.076219
            17    0       3.634001      0.002460      0.010337    -0.289198    0.000450   -0.068616
            18    0       3.632582      1.752897      1.793520    -0.143738    0.321401    0.042010
            19    0       5.398283     -0.023343      1.795369     0.167521   -0.126225    0.163509
            20    0       5.468462      1.774145      0.034564    -0.315502    0.221861   -0.245201
            21    0       3.550056     -0.011892      3.615927     0.490951    0.135914    0.003049
            22    0       3.631054      1.830593      5.443447    -0.072672   -0.070925   -0.125564
            23    0       5.402519     -0.016649      5.445387     0.080101    0.056271   -0.322078
            24    0       5.407833      1.759278      3.569379    -0.123190    0.215343    0.195985
            25    0       3.577488      3.627639      0.004971     0.379619   -0.161209   -0.115773
            26    0       3.634652      5.399836      1.810552    -0.172926    0.154685   -0.099856
            27    0       5.437299      3.598467      1.821070    -0.176209   -0.187074   -0.248684
            28    0       5.391499      5.401692     -0.013514     0.228661   -0.092978    0.150918
            29    0       3.567380      3.627172      3.593466     0.330758   -0.217655    0.247540
            30    0       3.610389      5.431935      5.430948    -0.037132   -0.238198   -0.108662
            31    0       5.438695      3.606470      5.399735    -0.183791    0.031770    0.023742
            32    0       5.412248      5.354932      3.558626     0.066305    0.487775    0.505795
 Energy
          0.081277415451
 PlusStress:  xx          yy          zz          yz          xz          xy
        -3.98851    -4.05570    -3.92796     0.17802     0.00155    -0.12054
END_CFG

BEGIN_CFG
 Size
    32
 Supercell
         7.220000      0.000000      0.000000
         0.000000      7.220000      0.000000
         0.000000      0.000000      7.220000
 AtomData:  id type       cartes_x      cartes_y      cartes_z           fx          fy          fz
             1    0       0.016029     -0.055095      0.038125    -0.137980    0.237597   -0.493199
             2    0       0.049697      1.702272      1.737646    -0.289491    0.592530    0.708123
             3    0       1.812808     -0.016626      1.804577     0.178186    0.101690    0.092430
             4    0       1.760496      1.850138      0.039165     0.379241   -0.475074   -0.608461
             5    0       0.003227      0.058418      3.634860    -0.028345   -0.525084   -0.104780
             6    0      -0.045261      1.823584      5.365560     0.248680   -0.239383    0.485354
             7    0       1.850920     -0.000503      5.406996    -0.348212    0.399015    0.401475
             8    0       1.769972      1.869095      3.601806     0.366062   -0.448421    0.030492
             9    0      -0.022477      3.592397      0.028691     0.138249    0.293171   -0.042012
            10    0       0.019418      5.436023      1.828604    -0.093816   -0.254802    0.068348
            11    0       1.916594      3.589008      1.778449    -0.890454    0.190633    0.239459
            12    0       1.763053      5.446996      0.059501     0.449001   -0.310447   -0.344818
            13    0      -0.005041      3.565842      3.565154     0.188126    0.271748   -0.014114
            14    0       0.033822      5.453896      5.442706    -0.264597   -0.260176   -0.315848
            15    0       1.769236      3.623079      5.421664     0.066143    0.075344    0.060487
            16    0       1.815228      5.459886      3.621546    -0.326538   -0.474176   -0.103373
            17    0       3.644635      0.003692      0.015179    -0.415874   -0.013345   -0.111913
            18    0       3.643200      1.728370      1.787983    -0.229019    0.482179    0.060323
            19    0       5.390706     -0.035610      1.791332     0.262480   -0.186180    0.229828
            20    0       5.493689      1.759785      0.050677    -0.461311    0.297339   -0.368315
            21    0       3.522413     -0.017214      3.618926     0.733599    0.224438   -0.017684
            22    0       3.641225      1.843050      5.457068    -0.102884   -0.109286   -0.179570
            23    0       5.396643     -0.024719      5.459040     0.128919    0.104583   -0.449795
            24    0       5.403671      1.737449      3.550006    -0.164901    0.314363    0.295506
            25    0       3.563049      3.635673      0.006924     0.546542   -0.213522   -0.201036
            26    0       3.646151      5.392985      1.812859    -0.262422    0.227508   -0.150038
            27    0       5.447610      3.591822      1.827936    -0.267936   -0.281827   -0.380128
            28    0       5.380845      5.394602     -0.019549     0.335678   -0.133340    0.217331
            29    0       3.547649      3.634711      3.586363     0.489158   -0.299369    0.383643
            30    0       3.610406      5.439280      5.438408    -0.063400   -0.345276   -0.163335
            31    0       5.449652      3.604836      5.392216    -0.257326    0.065532    0.034635
            32    0       5.411191      5.327220      3.535341     0.094444    0.692034    0.740986
 Energy
          0.378395381887
 PlusStress:  xx          yy          zz          yz          xz          xy
        -2.85585    -3.01249    -2.71691     0.38061     0.00159    -0.24401
END_CFG

BEGIN_CFG
 Size
    32
 Supercell
         7.220000      0.000000      0.000000
         0.000000      7.220000      0.000000
         0.000000      0.000000      7.220000
 AtomData:  id type       cartes_x      cartes_y      cartes_z           fx          fy          fz
             1    0       0.020623     -0.072007      0.047884    -0.208017    0.297675   -0.626537
             2    0       0.064579      1.671592      1.719298    -0.400997    0.759720    0.968166
             3    0       1.816455     -0.021564      1.804991     0.231720    0.129669    0.116405
             4    0       1.747874      1.862317      0.048634     0.517590   -0.589938   -0.796825
             5    0       0.004075      0.074757      3.642531    -0.004011   -0.675166   -0.142062
             6    0      -0.058856      1.828305      5.351986     0.310899   -0.280395    0.613673
             7    0       1.864174      0.001744      5.406694    -0.459769    0.487392    0.519297
             8    0       1.760479      1.887812      3.599270     0.471069   -0.597083    0.039313
             9    0      -0.029115      3.588260      0.037995     0.178305    0.374374   -0.064547
            10    0       0.025347      5.441503      1.836821    -0.133993   -0.319857    0.098493
            11    0       1.948479      3.583175      1.771031    -1.155547    0.229748    0.308698
            12    0       1.751714      5.455870      0.077288     0.599292   -0.432557   -0.455213
            13    0      -0.005542      3.552738      3.550125     0.213952    0.348198   -0.001839
            14    0       0.043476      5.465287      5.450035    -0.328784   -0.325207   -0.388577
            15    0       1.757707      3.627929      5.424246     0.086685    0.081510    0.072197
            16    0       1.816724      5.472053      3.624773    -0.421380   -0.617864   -0.120214
            17    0       3.653703      0.004863      0.019588    -0.521099   -0.035508   -0.159228
            18    0       3.652950      1.705674      1.782677    -0.316387    0.635628    0.075155
            19    0       5.384124     -0.048583      1.788163     0.358159   -0.233038    0.280159
            20    0       5.517156      1.746549      0.065379    -0.597669    0.350796   -0.483877
            21    0       3.497559     -0.021690      3.621866     0.960819    0.314263   -0.046269
            22    0       3.651000      1.855090      5.470010    -0.129756   -0.149541   -0.228131
            23    0       5.391246     -0.032387      5.470995     0.177074    0.156791   -0.553549
            24    0       5.398900      1.716819      3.531762    -0.189143    0.406005    0.393661
            25    0       3.550692      3.642894      0.008109     0.692389   -0.250814   -0.294593
            26    0       3.656640      5.386997      1.814594    -0.348992    0.288350   -0.193244
            27    0       5.456898      3.584109      1.833359    -0.359306   -0.365610   -0.502544
            28    0       5.371474      5.387015     -0.024758     0.432113   -0.163221    0.273548
            29    0       3.529782      3.641113      3.580722     0.636478   -0.359228    0.516426
            30    0       3.610177      5.445326      5.445248    -0.093596   -0.435246   -0.215213
            31    0       5.459622      3.603439      5.384832    -0.315847    0.105694    0.045088
            32    0       5.410494      5.302122      3.514867     0.117748    0.864458    0.952183
 Energy
          0.739628257782
 PlusStress:  xx          yy          zz          yz          xz          xy
        -1.48644    -1.75729    -1.24599     0.62371     0.00420    -0.38407
END_CFG

BEGIN_CFG
 Size
    32
 Supercell
         7.220000      0.000000      0.000000
         0.000000      7.220000      0.000000
         0.000000      0.000000      7.220000
 AtomData:  id type       cartes_x      cartes_y      cartes_z           fx          fy          fz
             1    0       0.024425     -0.087779      0.055255    -0.278084    0.352127   -0.729007
             2    0       0.077924      1.643817      1.704640    -0.503171    0.901384    1.201094
             3    0       1.820985     -0.026016      1.805850     0.271274    0.151833    0.132124
             4    0       1.737237      1.872249      0.055064     0.640469   -0.674236   -0.952916
             5    0       0.004913      0.088534      3.649656     0.028195   -0.802989   -0.175825
             6    0      -0.071287      1.831974      5.340738     0.363555   -0.303771    0.715725
             7    0       1.875686      0.005841      5.408360    -0.557587    0.545335    0.611726
             8    0       1.752773      1.904251      3.596892     0.562118   -0.735715    0.052593
             9    0      -0.035056      3.585538      0.047034     0.217474    0.437102   -0.089967
            10    0       0.030760      5.445778      1.845392    -0.172033   -0.370072    0.119873
            11    0       1.975955      3.578226      1.764798    -1.383392    0.251077    0.364130
            12    0       1.742663      5.463099      0.093340     0.733307   -0.549657   -0.556218
            13    0      -0.005222      3.540942      3.535105     0.220444    0.412761    0.021735
            14    0       0.051867      5.475443      5.455902    -0.379900   -0.378224   -0.444946
            15    0       1.746506      3.633104      5.427096     0.106513    0.076523    0.077643
            16    0       1.816633      5.481882      3.627553    -0.494050   -0.737815   -0.124948
            17    0       3.660805      0.005886      0.023378    -0.598093   -0.064403   -0.207463
            18    0       3.661501      1.685392      1.777659    -0.398297    0.775357    0.085800
            19    0       5.378899     -0.062448      1.786054     0.445839   -0.258206    0.311361
            20    0       5.538340      1.734642      0.078219    -0.720078    0.382945   -0.584461
            21    0       3.476357     -0.024981      3.624646     1.158247    0.392317   -0.073172
            22    0       3.660283      1.866561      5.482091    -0.153419   -0.191624   -0.272299
            23    0       5.386505     -0.039454      5.480860     0.218859    0.205330   -0.632800
            24    0       5.393425      1.697736      3.515023    -0.194118    0.488078    0.488757
            25    0       3.540980      3.649156      0.008164     0.810553   -0.277498   -0.382481
            26    0       3.665784      5.382107      1.815590    -0.428155    0.330197   -0.223445
            27    0       5.464817      3.575007      1.836874    -0.447821   -0.426551   -0.601797
            28    0       5.363752      5.378816     -0.028927     0.513286   -0.177978    0.316280
            29    0       3.514338      3.646151      3.577056     0.766131   -0.396290    0.634074
            30    0       3.609587      5.449733      5.451269    -0.125588   -0.502514   -0.263079
            31    0       5.468381      3.602423      5.377624    -0.357978    0.147042    0.055575
            32    0       5.410247      5.280295      3.498012     0.135501    0.998135    1.126335
 Energy
          1.114899548091
 PlusStress:  xx          yy          zz          yz          xz          xy
        -0.07348    -0.46417     0.28393     0.87197     0.01782    -0.52271
END_CFG

BEGIN_CFG
 Size
    32
 Supercell
         7.220000      0.000000      0.000000
         0.000000      7.220000      0.000000
         0.000000      0.000000      7.220000
 AtomData:  id type       cartes_x      cartes_y      cartes_z           fx          fy          fz
             1    0       0.027162     -0.102201      0.059838    -0.337272    0.402395   -0.790093
             2    0       0.089350      1.619495      1.694561    -0.582971    1.012249    1.376321
             3    0       1.826554     -0.029900      1.807212     0.289535    0.166425    0.136361
             4    0       1.729054      1.879609      0.057856     0.731090   -0.726247   -1.058746
             5    0       0.005859      0.099265      3.656109     0.061485   -0.902852   -0.202400
             6    0      -0.082358      1.834503      5.332204     0.407516   -0.311570    0.786316
             7    0       1.885088      0.012012      5.412347    -0.633485    0.569445    0.666743
             8    0       1.747205      1.917883      3.594728     0.635403   -0.857568    0.073030
             9    0      -0.040150      3.584470      0.055717     0.257524    0.475890   -0.116647
            10    0       0.035515      5.448656      1.854393    -0.202353   -0.403091    0.123730
            11    0       1.998157      3.574253      1.759964    -1.558323    0.255684    0.399433
            12    0       1.736416      5.468242      0.107278     0.838521   -0.649213   -0.642166
            13    0      -0.004050      3.530695      3.520181     0.209741    0.461217    0.056537
            14    0       0.058796      5.484157      5.460087    -0.418329   -0.419966   -0.485780
            15    0       1.735706      3.638589      5.430235     0.125900    0.060179    0.075846
            16    0       1.814676      5.488916      3.629869    -0.532979   -0.821531   -0.117066
            17    0       3.665647      0.006649      0.026364    -0.641243   -0.097597   -0.252395
            18    0       3.668543      1.668060      1.772967    -0.467915    0.894335    0.090064
            19    0       5.375361     -0.077309      1.785125     0.517196   -0.254910    0.321468
            20    0       5.556762      1.724191      0.088802    -0.822884    0.395669   -0.662823
            21    0       3.459560     -0.026795      3.627172     1.309275    0.444809   -0.087955
            22    0       3.668993      1.877307      5.493148    -0.173947   -0.235764   -0.313260
            23    0       5.382571     -0.045734      5.488331     0.249066    0.243646   -0.687250
            24    0       5.387219      1.680510      3.500151    -0.179451    0.557089    0.578377
            25    0       3.534371      3.654349      0.006751     0.892274   -0.297110   -0.447781
            26    0       3.673279      5.378476      1.815729    -0.495190    0.347288   -0.235110
            27    0       5.471031      3.564279      1.838100    -0.530485   -0.452539   -0.663178
            28    0       5.357987      5.369950     -0.031894     0.575202   -0.173581    0.342913
            29    0       3.501813      3.649680      3.575822     0.870854   -0.411628    0.723661
            30    0       3.608519      5.452242      5.456290    -0.156331   -0.541880   -0.305012
            31    0       5.475766      3.601931      5.370635    -0.382950    0.183981    0.066650
            32    0       5.410512      5.262255      3.485453     0.145525    1.086744    1.250213
 Energy
          1.450378086806
 PlusStress:  xx          yy          zz          yz          xz          xy
         1.17968     0.68630     1.65191     1.08494     0.04956    -0.64975
END_CFG

BEGIN_CFG
 Size
    32
 Supercell
         7.220000      0.000000      0.000000
         0.000000      7.220000      0.000000
         0.000000      0.000000      7.220000
 AtomData:  id type       cartes_x      cartes_y      cartes_z           fx          fy          fz
             1    0       0.028605     -0.115082      0.061392    -0.374809    0.448811   -0.801299
             2    0       0.098556      1.599049      1.689728    -0.630522    1.089169    1.466873
             3    0       1.833234     -0.033165      1.809093     0.280650    0.172079    0.126767
             4    0       1.723667      1.884195      0.056600     0.774899   -0.746859   -1.098575
             5    0       0.007032      0.106571      3.661788     0.089336   -0.970347   -0.218244
             6    0      -0.091907      1.835860      5.326653     0.443174   -0.306324    0.821259
             7    0       1.892096      0.020356      5.418869    -0.680995    0.557730    0.674301
             8    0       1.744060      1.928243      3.592860     0.687859   -0.955391    0.102403
             9    0      -0.044245      3.585205      0.063946     0.299173    0.486639   -0.143134
            10    0       0.039501      5.450013      1.863836    -0.220438   -0.416949    0.102500
            11    0       2.014422      3.571280      1.756668    -1.666197    0.245374    0.409705
            12    0       1.733378      5.470925      0.118775     0.903085   -0.718617   -0.708091
            13    0      -0.002059      3.522174      3.505478     0.185800    0.489007    0.101404
            14    0       0.064111      5.491266      5.462430    -0.444906   -0.451566   -0.511772
            15    0       1.725380      3.644328      5.433656     0.145271    0.032626    0.066327
            16    0       1.810705      5.492837      3.631747    -0.528518   -0.859379   -0.097759
            17    0       3.668064      0.007028      0.028370    -0.647059   -0.132088   -0.289184
            18    0       3.673810      1.654132      1.768613    -0.518564    0.985628    0.086507
            19    0       5.373782     -0.093160      1.785414     0.564358   -0.217166    0.310472
            20    0       5.572021      1.715252      0.096815    -0.900299    0.391251   -0.713731
            21    0       3.447743     -0.026933      3.629396     1.398844    0.460572   -0.082208
            22    0       3.677061      1.887164      5.503029    -0.191052   -0.282164   -0.352069
            23    0       5.379556     -0.051082      5.493199     0.263616    0.266893   -0.717207
            24    0       5.380329      1.665409      3.487489    -0.145349    0.610439    0.659294
            25    0       3.531189      3.658393      0.003615     0.929714   -0.313139   -0.474087
            26    0       3.678866      5.376170      1.814965    -0.545266    0.335794   -0.224550
            27    0       5.475228      3.551822      1.836802    -0.603536   -0.434502   -0.675178
            28    0       5.354410      5.360430     -0.033559     0.614764   -0.147607    0.351651
            29    0       3.492611      3.651638      3.577371     0.944568   -0.407720    0.773636
            30    0       3.606860      5.452701      5.460149    -0.182379   -0.550234   -0.339295
            31    0       5.481680      3.602093      5.363909    -0.390409    0.211192    0.078972
            32    0       5.411322      5.248353      3.477679     0.145187    1.126849    1.314312
 Energy
          1.699095689829
 PlusStress:  xx          yy          zz          yz          xz          xy
         2.09276     1.54093     2.66123     1.22897     0.10401    -0.75251
END_CFG

BEGIN_CFG
 Size
    32
 Supercell
         7.220000      0.000000      0.000000
         0.000000      7.220000      0.000000
         0.000000      0.000000      7.220000
 AtomData:  id type       cartes_x      cartes_y      cartes_z           fx          fy          fz
             1    0       0.028606     -0.126245      0.059868    -0.382923    0.489928   -0.759040
             2    0       0.105366      1.582773      1.690481    -0.641745    1.130808    1.456851
             3    0       1.840996     -0.035789      1.811456     0.241662    0.168152    0.103027