BEGIN_CFG
 Size
    32
 Supercell
         7.220000      0.000000      0.000000
         0.000000      7.220000      0.000000
         0.000000      0.000000      7.220000
 AtomData:  id type       cartes_x      cartes_y      cartes_z           fx          fy          fz
             1    0       0.000000      0.000000      0.000000     0.000000    0.000000    0.000000
             2    0       0.000000      1.805000      1.805000     0.000000    0.000000    0.000000
             3    0       1.805000      0.000000      1.805000     0.000000   -0.000000    0.000000
             4    0       1.805000      1.805000      0.000000     0.000000    0.000000   -0.000000
             5    0       0.000000      0.000000      3.610000     0.000000    0.000000   -0.000000
             6    0       0.000000      1.805000      5.415000     0.000000    0.000000    0.000000
             7    0       1.805000      0.000000      5.415000     0.000000    0.000000    0.000000
             8    0       1.805000      1.805000      3.610000     0.000000    0.000000    0.000000
             9    0       0.000000      3.610000      0.000000     0.000000   -0.000000   -0.000000
            10    0       0.000000      5.415000      1.805000    -0.000000    0.000000    0.000000
            11    0       1.805000      3.610000      1.805000     0.000000   -0.000000    0.000000
            12    0       1.805000      5.415000      0.000000     0.000000    0.000000    0.000000
            13    0       0.000000      3.610000      3.610000     0.000000   -0.000000   -0.000000
            14    0       0.000000      5.415000      5.415000    -0.000000   -0.000000   -0.000000
            15    0       1.805000      3.610000      5.415000     0.000000   -0.000000   -0.000000
            16    0       1.805000      5.415000      3.610000     0.000000   -0.000000   -0.000000
            17    0       3.610000      0.000000      0.000000    -0.000000    0.000000    0.000000
            18    0       3.610000      1.805000      1.805000    -0.000000   -0.000000    0.000000
            19    0       5.415000      0.000000      1.805000    -0.000000   -0.000000   -0.000000
            20    0       5.415000      1.805000      0.000000    -0.000000    0.000000   -0.000000
            21    0       3.610000      0.000000      3.610000    -0.000000   -0.000000   -0.000000
            22    0       3.610000      1.805000      5.415000     0.000000    0.000000   -0.000000
            23    0       5.415000      0.000000      5.415000    -0.000000    0.000000    0.000000
            24    0       5.415000      1.805000      3.610000    -0.000000    0.000000    0.000000
            25    0       3.610000      3.610000      0.000000     0.000000   -0.000000   -0.000000
            26    0       3.610000      5.415000      1.805000    -0.000000   -0.000000    0.000000
            27    0       5.415000      3.610000      1.805000    -0.000000    0.000000    0.000000
            28    0       5.415000      5.415000      0.000000    -0.000000   -0.000000   -0.000000
            29    0       3.610000      3.610000      3.610000     0.000000    0.000000    0.000000
            30    0       3.610000      5.415000      5.415000     0.000000   -0.000000   -0.000000
            31    0       5.415000      3.610000      5.415000    -0.000000   -0.000000   -0.000000
            32    0       5.415000      5.415000      3.610000    -0.000000   -0.000000   -0.000000
 Energy
         -0.181171721462
 PlusStress:  xx          yy          zz          yz          xz          xy
        -5.00315    -5.00315    -5.00315     0.00000     0.00000    -0.00000
END_CFG

BEGIN_CFG
 Size
    32
 Supercell
         7.220000      0.000000      0.000000
         0.000000      7.220000      0.000000
         0.000000      0.000000      7.220000
 AtomData:  id type       cartes_x      cartes_y      cartes_z           fx          fy          fz
             1    0       0.005511     -0.018809      0.013573    -0.028892    0.090476   -0.171999
             2    0       0.017011      1.769714      1.781449    -0.084067    0.207981    0.209467
             3    0       1.807312     -0.005720      1.804696     0.056268    0.035455    0.032318
             4    0       1.789572      1.820905      0.014067     0.113138   -0.172670   -0.197817
             5    0       0.001194      0.020387      3.618455    -0.028826   -0.181854   -0.032629
             6    0      -0.015541      1.811669      5.397658     0.092435   -0.098719    0.172833
             7    0       1.820888     -0.000903      5.411657    -0.113812    0.148879    0.132748
             8    0       1.792685      1.827111      3.607205     0.127344   -0.145956    0.013277
             9    0      -0.007747      3.603631      0.009627     0.050939    0.098920   -0.011402
            10    0       0.006609      5.422465      1.812792    -0.025069   -0.091871    0.012512
            11    0       1.843734      3.602650      1.795736    -0.304092    0.071090    0.081955
            12    0       1.790282      5.426141      0.020419     0.142944   -0.090143   -0.115179
            13    0      -0.002061      3.594805      3.595088     0.079000    0.095187   -0.008442
            14    0       0.011767      5.428443      5.424823    -0.099752   -0.096798   -0.120171
            15    0       1.792964      3.614199      5.417110     0.022838    0.033572    0.022549
            16    0       1.808955      5.430761      3.614044    -0.107042   -0.157187   -0.039921
            17    0       3.622279      0.001222      0.005229    -0.146690    0.004076   -0.031703
            18    0       3.621417      1.778646      1.799218    -0.066513    0.159498    0.021991
            19    0       5.406493     -0.011555      1.800024     0.078247   -0.061696    0.084572
            20    0       5.442038      1.789341      0.017512    -0.161199    0.122103   -0.121230
            21    0       3.579564     -0.006057      3.612944     0.244235    0.058303    0.010426
            22    0       3.620602      1.817863      5.429348    -0.039778   -0.035166   -0.065837
            23    0       5.408693     -0.008362      5.430517     0.035406    0.019697   -0.170650
            24    0       5.411540      1.781928      3.589503    -0.065234    0.111090    0.098074
            25    0       3.593371      3.618992      0.002576     0.196646   -0.090666   -0.047415
            26    0       3.622488      5.407273      1.807867    -0.085549    0.076562   -0.048191
            27    0       5.426314      3.604405      1.813261    -0.086757   -0.090497   -0.119312
            28    0       5.403028      5.408434     -0.006904     0.116411   -0.046075    0.077769
            29    0       3.588372      3.618807      3.601510     0.167538   -0.116641    0.117284
            30    0       3.610226      5.423695      5.423076    -0.016609   -0.119826   -0.053829
            31    0       5.427034      3.608219      5.407344    -0.098194    0.008408    0.012204
            32    0       5.413558      5.384483      3.583828     0.034686    0.254467    0.255745
 Energy
         -0.113785715239
 PlusStress:  xx          yy          zz          yz          xz          xy
        -4.74091    -4.75742    -4.72693     0.04381     0.00023    -0.03008
END_CFG

BEGIN_CFG
 Size
    32
 Supercell
         7.220000      0.000000      0.000000
         0.000000      7.220000      0.000000
         0.000000      0.000000      7.220000
 AtomData:  id type       cartes_x      cartes_y      cartes_z           fx          fy          fz
             1    0       0.010913     -0.037275      0.026492    -0.075550    0.169950   -0.338479
             2    0       0.033703      1.735217      1.758693    -0.183360    0.408432    0.449849
             3    0       1.809838     -0.011305      1.804515     0.117411    0.069626    0.063845
             4    0       1.774573      1.836155      0.027383     0.242840   -0.333906   -0.403981
             5    0       0.002280      0.040084      3.626787    -0.036916   -0.358828   -0.068588
             6    0      -0.030732      1.817964      5.380971     0.174768   -0.177794    0.335882
             7    0       1.836343     -0.001241      5.408817    -0.231106    0.283494    0.268422
             8    0       1.780853      1.848668      3.604462     0.249811   -0.297373    0.022802
             9    0      -0.015299      3.597638      0.019211     0.098244    0.197724   -0.026840
            10    0       0.013123      5.429580      1.820631    -0.057841   -0.176847    0.035539
            11    0       1.881313      3.595569      1.786782    -0.605045    0.136564    0.163351
            12    0       1.776107      5.436939      0.040400     0.295089   -0.195061   -0.231348
            13    0      -0.003822      3.579971      3.580145     0.143339    0.185603   -0.012946
            14    0       0.023154      5.441518      5.434191    -0.189230   -0.183682   -0.224374
            15    0       1.781014      3.618525      5.419306     0.044606    0.060252    0.042553
            16    0       1.812503      5.445924      3.617936    -0.216469   -0.316618   -0.074348
            17    0       3.634001      0.002460      0.010337    -0.286565   -0.001490   -0.069823
            18    0       3.632582      1.752897      1.793520    -0.143766    0.321633    0.042539
            19    0       5.398283     -0.023343      1.795369     0.166826   -0.126026    0.162206
            20    0       5.468462      1.774145      0.034564    -0.315259    0.220595   -0.246388
            21    0       3.550056     -0.011892      3.615927     0.490630    0.134802    0.004222
            22    0       3.631054      1.830593      5.443447    -0.074588   -0.071820   -0.125475
            23    0       5.402519     -0.016649      5.445387     0.079026    0.057034   -0.320156
            24    0       5.407833      1.759278      3.569379    -0.119794    0.216391    0.197590
            25    0       3.577488      3.627639      0.004971     0.380080   -0.161045   -0.115888
            26    0       3.634652      5.399836      1.810552    -0.175379    0.154552   -0.099972
            27    0       5.437299      3.598467      1.821070    -0.177150   -0.186388   -0.248473
            28    0       5.391499      5.401692     -0.013514     0.230381   -0.091206    0.151503
            29    0       3.567380      3.627172      3.593466     0.332511   -0.217606    0.247626
            30    0       3.610389      5.431935      5.430948    -0.038467   -0.235861   -0.109018
            31    0       5.438695      3.606470      5.399735    -0.185608    0.030338    0.023861
            32    0       5.412248      5.354932      3.558626     0.066529    0.484560    0.504309
 Energy
          0.080601688894
 PlusStress:  xx          yy          zz          yz          xz          xy
        -3.98768    -4.05883    -3.92858     0.17247    -0.00102    -0.11048
END_CFG

BEGIN_CFG
 Size
    32
 Supercell
         7.220000      0.000000      0.000000
         0.000000      7.220000      0.000000
         0.000000      0.000000      7.220000
 AtomData:  id type       cartes_x      cartes_y      cartes_z           fx          fy          fz
             1    0       0.016029     -0.055095      0.038125    -0.137421    0.239211   -0.493843
             2    0       0.049697      1.702272      1.737646    -0.292852    0.596516    0.710957
             3    0       1.812808     -0.016626      1.804577     0.178800    0.101160    0.092986
             4    0       1.760496      1.850138      0.039165     0.383051   -0.476090   -0.609327
             5    0       0.003227      0.058418      3.634860    -0.026836   -0.525049   -0.106526
             6    0      -0.045261      1.823584      5.365560     0.246395   -0.237212    0.484368
             7    0       1.850920     -0.000503      5.406996    -0.347951    0.398135    0.400028
             8    0       1.769972      1.869095      3.601806     0.365327   -0.450473    0.031251
             9    0      -0.022477      3.592397      0.028691     0.141911    0.290875   -0.046270
            10    0       0.019418      5.436023      1.828604    -0.096183   -0.252683    0.064916
            11    0       1.916594      3.589008      1.778449    -0.894643    0.191767    0.241681
            12    0       1.763053      5.446996      0.059501     0.451588   -0.311949   -0.346419
            13    0      -0.005041      3.565842      3.565154     0.190018    0.269491   -0.010245
            14    0       0.033822      5.453896      5.442706    -0.266896   -0.260200   -0.312875
            15    0       1.769236      3.623079      5.421664     0.065377    0.078066    0.058863
            16    0       1.815228      5.459886      3.621546    -0.322743   -0.472573   -0.100989
            17    0       3.644635      0.003692      0.015179    -0.412680   -0.016206   -0.113959
            18    0       3.643200      1.728370      1.787983    -0.228311    0.482128    0.060846
            19    0       5.390706     -0.035610      1.791332     0.261595   -0.186506    0.228394
            20    0       5.493689      1.759785      0.050677    -0.462895    0.296739   -0.371501
            21    0       3.522413     -0.017214      3.618926     0.732824    0.222747   -0.015359
            22    0       3.641225      1.843050      5.457068    -0.104787   -0.110044   -0.178825
            23    0       5.396643     -0.024719      5.459040     0.126712    0.105613   -0.447087
            24    0       5.403671      1.737449      3.550006    -0.160742    0.315445    0.297239
            25    0       3.563049      3.635673      0.006924     0.548228   -0.213783   -0.202115
            26    0       3.646151      5.392985      1.812859    -0.266380    0.228063   -0.150807
            27    0       5.447610      3.591822      1.827936    -0.269193   -0.281420   -0.380041
            28    0       5.380845      5.394602     -0.019549     0.337693   -0.131025    0.218195
            29    0       3.547649      3.634711      3.586363     0.491438   -0.299379    0.385028
            30    0       3.610406      5.439280      5.438408    -0.065053   -0.342104   -0.163659
            31    0       5.449652      3.604836      5.392216    -0.259801    0.062394    0.035193
            32    0       5.411191      5.327220      3.535341     0.094409    0.688343    0.739904
 Energy
          0.378248395929
 PlusStress:  xx          yy          zz          yz          xz          xy
        -2.83959    -3.00449    -2.70577     0.37250    -0.00452    -0.22688
END_CFG

BEGIN_CFG
 Size
    32
 Supercell
         7.220000      0.000000      0.000000
         0.000000      7.220000      0.000000
         0.000000      0.000000      7.220000
 AtomData:  id type       cartes_x      cartes_y      cartes_z           fx          fy          fz
             1    0       0.020623     -0.072007      0.047884    -0.209193    0.300479   -0.630114
             2    0       0.064579      1.671592      1.719298    -0.404134    0.765497    0.972676
             3    0       1.816455     -0.021564      1.804991     0.234056    0.128562    0.117188
             4    0       1.747874      1.862317      0.048634     0.522940   -0.592570   -0.800533
             5    0       0.004075      0.074757      3.642531    -0.003393   -0.674677   -0.144140
             6    0      -0.058856      1.828305      5.351986     0.307647   -0.277947    0.612912
             7    0       1.864174      0.001744      5.406694    -0.458414    0.487643    0.518229
             8    0       1.760479      1.887812      3.599270     0.470788   -0.599890    0.041485
             9    0      -0.029115      3.588260      0.037995     0.182899    0.372166   -0.069005
            10    0       0.025347      5.441503      1.836821    -0.136460   -0.316820    0.094158
            11    0       1.948479      3.583175      1.771031    -1.161843    0.232256    0.312621
            12    0       1.751714      5.455870      0.077288     0.603290   -0.433478   -0.456851
            13    0      -0.005542      3.552738      3.550125     0.217725    0.344399    0.001791
            14    0       0.043476      5.465287      5.450035    -0.332059   -0.325228   -0.385431
            15    0       1.757707      3.627929      5.424246     0.085320    0.085621    0.070286
            16    0       1.816724      5.472053      3.624773    -0.417858   -0.616603   -0.117647
            17    0       3.653703      0.004863      0.019588    -0.517878   -0.038992   -0.162455
            18    0       3.652950      1.705674      1.782677    -0.314770    0.636092    0.076166
            19    0       5.384124     -0.048583      1.788163     0.356766   -0.234709    0.278950
            20    0       5.517156      1.746549      0.065379    -0.601464    0.351032   -0.490349
            21    0       3.497559     -0.021690      3.621866     0.960387    0.311982   -0.041564
            22    0       3.651000      1.855090      5.470010    -0.130654   -0.149918   -0.226620
            23    0       5.391246     -0.032387      5.470995     0.173381    0.158038   -0.550632
            24    0       5.398900      1.716819      3.531762    -0.185620    0.407147    0.395904
            25    0       3.550692      3.642894      0.008109     0.696971   -0.252702   -0.297292
            26    0       3.656640      5.386997      1.814594    -0.354536    0.290121   -0.194925
            27    0       5.456898      3.584109      1.833359    -0.360740   -0.366147   -0.502827
            28    0       5.371474      5.387015     -0.024758     0.433886   -0.160791    0.274559
            29    0       3.529782      3.641113      3.580722     0.639481   -0.359672    0.520204
            30    0       3.610177      5.445326      5.445248    -0.095006   -0.432529   -0.216318
            31    0       5.459622      3.603439      5.384832    -0.319000    0.100159    0.046418
            32    0       5.410494      5.302122      3.514867     0.117484    0.861479    0.953156
 Energy
          0.740446846388
 PlusStress:  xx          yy          zz          yz          xz          xy
        -1.45424    -1.74508    -1.22451     0.61434    -0.00751    -0.35698
END_CFG

BEGIN_CFG
 Size
    32
 Supercell
         7.220000      0.000000      0.000000
         0.000000      7.220000      0.000000
         0.000000      0.000000      7.220000
 AtomData:  id type       cartes_x      cartes_y      cartes_z           fx          fy          fz
             1    0       0.024425     -0.087779      0.055255    -0.281078    0.355422   -0.736428
             2    0       0.077924      1.643817      1.704640    -0.505724    0.909325    1.207907
             3    0       1.820985     -0.026016      1.805850     0.275586    0.150216    0.133087
             4    0       1.737237      1.872249      0.055064     0.646952   -0.678591   -0.959894
             5    0       0.004913      0.088534      3.649656     0.027252   -0.801970   -0.178192
             6    0      -0.071287      1.831974      5.340738     0.359525   -0.301517    0.715790
             7    0       1.875686      0.005841      5.408360    -0.554956    0.547328    0.611520
             8    0       1.752773      1.904251      3.596892     0.562230   -0.739636    0.056280
             9    0      -0.035056      3.585538      0.047034     0.222797    0.435185   -0.093899
            10    0       0.030760      5.445778      1.845392    -0.173753   -0.366748    0.115047
            11    0       1.975955      3.578226      1.764798    -1.391649    0.256352    0.369978
            12    0       1.742663      5.463099      0.093340     0.738715   -0.549510   -0.557629
            13    0      -0.005222      3.540942      3.535105     0.226475    0.407318    0.024166
            14    0       0.051867      5.475443      5.455902    -0.384595   -0.379093   -0.442902
            15    0       1.746506      3.633104      5.427096     0.104585    0.082049    0.075634
            16    0       1.816633      5.481882      3.627553    -0.490987   -0.737174   -0.122601
            17    0       3.660805      0.005886      0.023378    -0.595289   -0.068137   -0.212139
            18    0       3.661501      1.685392      1.777659    -0.396715    0.776960    0.086364
            19    0       5.378899     -0.062448      1.786054     0.444164   -0.262692    0.310435
            20    0       5.538340      1.734642      0.078219    -0.726436    0.385061   -0.594746
            21    0       3.476357     -0.024981      3.624646     1.158478    0.389370   -0.065565
            22    0       3.660283      1.866561      5.482091    -0.152468   -0.191561   -0.270023
            23    0       5.386505     -0.039454      5.480860     0.213631    0.206882   -0.630141
            24    0       5.393425      1.697736      3.515023    -0.192504    0.489174    0.491710
            25    0       3.540980      3.649156      0.008164     0.818420   -0.281084   -0.387213
            26    0       3.665784      5.382107      1.815590    -0.435112    0.333467   -0.226038
            27    0       5.464817      3.575007      1.836874    -0.449282   -0.428519   -0.602618
            28    0       5.363752      5.378816     -0.028927     0.514623   -0.175861    0.317303
            29    0       3.514338      3.646151      3.577056     0.770491   -0.397581    0.640986
            30    0       3.609587      5.449733      5.451269    -0.126140   -0.500527   -0.264800
            31    0       5.468381      3.602423      5.377624    -0.361900    0.138630    0.057769
            32    0       5.410247      5.280295      3.498012     0.134662    0.997460    1.130849
 Energy
          1.117059005936
 PlusStress:  xx          yy          zz          yz          xz          xy
        -0.03480    -0.46286     0.29974     0.85837    -0.00239    -0.48682
END_CFG

BEGIN_CFG
 Size
    32
 Supercell
         7.220000      0.000000      0.000000
         0.000000      7.220000      0.000000
         0.000000      0.000000      7.220000
 AtomData:  id type       cartes_x      cartes_y      cartes_z           fx          fy          fz
             1    0       0.027162     -0.102201      0.059838    -0.341743    0.406051   -0.801421
             2    0       0.089350      1.619495      1.694561    -0.585163    1.022684    1.385371
             3    0       1.826554     -0.029900      1.807212     0.295725    0.164513    0.137337
             4    0       1.729054      1.879609      0.057856     0.737680   -0.732161   -1.068192
             5    0       0.005859      0.099265      3.656109     0.058451   -0.901660   -0.204932
             6    0      -0.082358      1.834503      5.332204     0.402707   -0.309857    0.787199
             7    0       1.885088      0.012012      5.412347    -0.629589    0.573399    0.667729
             8    0       1.747205      1.917883      3.594728     0.636665   -0.862481    0.078372
             9    0      -0.040150      3.584470      0.055717     0.263108    0.474136   -0.119830
            10    0       0.035515      5.448656      1.854393    -0.203385   -0.399513    0.118784
            11    0       1.998157      3.574253      1.759964    -1.567645    0.263057    0.406978
            12    0       1.736416      5.468242      0.107278     0.845175   -0.647732   -0.643539
            13    0      -0.004050      3.530695      3.520181     0.217999    0.453760    0.057440
            14    0       0.058796      5.484157      5.460087    -0.424827   -0.422373   -0.485751
            15    0       1.735706      3.638589      5.430235     0.123417    0.066992    0.073961
            16    0       1.814676      5.488916      3.629869    -0.530226   -0.821925   -0.115192
            17    0       3.665647      0.006649      0.026364    -0.639171   -0.101261   -0.258609
            18    0       3.668543      1.668060      1.772967    -0.466331    0.897286    0.089960
            19    0       5.375361     -0.077309      1.785125     0.515002   -0.261667    0.320847
            20    0       5.556762      1.724191      0.088802    -0.831998    0.400201   -0.677418
            21    0       3.459560     -0.026795      3.627172     1.309621    0.441501   -0.077712
            22    0       3.668993      1.877307      5.493148    -0.170795   -0.235379   -0.310274
            23    0       5.382571     -0.045734      5.488331     0.242423    0.245586   -0.685180
            24    0       5.387219      1.680510      3.500151    -0.180119    0.558999    0.582155
            25    0       3.534371      3.654349      0.006751     0.903762   -0.302640   -0.454681
            26    0       3.673279      5.378476      1.815729    -0.502778    0.351704   -0.238207
            27    0       5.471031      3.564279      1.838100    -0.531809   -0.456075   -0.664602
            28    0       5.357987      5.369950     -0.031894     0.576037   -0.172555    0.343466
            29    0       3.501813      3.649680      3.575822     0.877699   -0.413690    0.733970
            30    0       3.608519      5.452242      5.456290    -0.155677   -0.540853   -0.307341
            31    0       5.475766      3.601931      5.370635    -0.387555    0.172666    0.069599
            32    0       5.410512      5.262255      3.485453     0.143339    1.089284    1.259711
 Energy
          1.453985381697
 PlusStress:  xx          yy          zz          yz          xz          xy
         1.20885     0.66272     1.64696     1.06622     0.02086    -0.60273
END_CFG

BEGIN_CFG
 Size
    32
 Supercell
         7.220000      0.000000      0.000000
         0.000000      7.220000      0.000000
         0.000000      0.000000      7.220000
 AtomData:  id type       cartes_x      cartes_y      cartes_z           fx          fy          fz
             1    0       0.028605     -0.115082      0.061392    -0.380282    0.452589   -0.815609
             2    0       0.098556      1.599049      1.689728    -0.631973    1.101150    1.477510
             3    0       1.833234     -0.033165      1.809093     0.288327    0.170157    0.127586
             4    0       1.723667      1.884195      0.056600     0.780785   -0.753824   -1.109322
             5    0       0.007032      0.106571      3.661788     0.084651   -0.968885   -0.220700
             6    0      -0.091907      1.835860      5.326653     0.437769   -0.305222    0.822690
             7    0       1.892096      0.020356      5.418869    -0.675930    0.563547    0.676547
             8    0       1.744060      1.928243      3.592860     0.690506   -0.960895    0.109107
             9    0      -0.044245      3.585205      0.063946     0.304781    0.484727   -0.145422
            10    0       0.039501      5.450013      1.863836    -0.221304   -0.413347    0.097702
            11    0       2.014422      3.571280      1.756668    -1.675598    0.253885    0.418350
            12    0       1.733378      5.470925      0.118775     0.910472   -0.715774   -0.709309
            13    0      -0.002059      3.522174      3.505478     0.195551    0.479942    0.100433
            14    0       0.064111      5.491266      5.462430    -0.453365   -0.455760   -0.514003
            15    0       1.725380      3.644328      5.433656     0.142163    0.040535    0.064699
            16    0       1.810705      5.492837      3.631747    -0.525731   -0.861053   -0.096282
            17    0       3.668064      0.007028      0.028370    -0.645783   -0.135430   -0.296783
            18    0       3.673810      1.654132      1.768613    -0.516762    0.990231    0.085752
            19    0       5.373782     -0.093160      1.785414     0.561640   -0.225526    0.310137
            20    0       5.572021      1.715252      0.096815    -0.911714    0.398220   -0.732301
            21    0       3.447743     -0.026933      3.629396     1.398898    0.457043   -0.069838
            22    0       3.677061      1.887164      5.503029    -0.185796   -0.281222   -0.348521
            23    0       5.379556     -0.051082      5.493199     0.255852    0.269254   -0.715831
            24    0       5.380329      1.665409      3.487489    -0.148479    0.614253    0.664149
            25    0       3.531189      3.658393      0.003615     0.944495   -0.320741   -0.482705
            26    0       3.678866      5.376170      1.814965    -0.553182    0.340993   -0.227822
            27    0       5.475228      3.551822      1.836802    -0.604660   -0.439416   -0.677204
            28    0       5.354410      5.360430     -0.033559     0.615131   -0.148439    0.351272
            29    0       3.492611      3.651638      3.577371     0.953803   -0.410758    0.786596
            30    0       3.606860      5.452701      5.460149    -0.180470   -0.550166   -0.342263
            31    0       5.481680      3.602093      5.363909    -0.395428    0.197365    0.082443
            32    0       5.411322      5.248353      3.477679     0.141635    1.132566    1.328941
 Energy
          1.703832247784
 PlusStress:  xx          yy          zz          yz          xz          xy
         2.10075     1.48138     2.62464     1.20649     0.06914    -0.69336
END_CFG

BEGIN_CFG
 Size
    32
 Supercell
         7.220000      0.000000      0.000000
         0.000000      7.220000      0.000000
         0.000000      0.000000      7.220000
 AtomData:  id type       cartes_x      cartes_y      cartes_z           fx          fy          fz
             1    0       0.028606     -0.126245      0.059868    -0.388460    0.493769   -0.774970
             2    0       0.105366      1.582773      1.690481    -0.642172    1.142904    1.467541
             3    0       1.840996     -0.035789      1.811456     0.250242    0.166459    0.103562