BEGIN_CFG
 Size
    32
 Supercell
         7.220000      0.000000      0.000000
         0.000000      7.220000      0.000000
         0.000000      0.000000      7.220000
 AtomData:  id type       cartes_x      cartes_y      cartes_z           fx          fy          fz
             1    0       0.000000      0.000000      0.000000    -0.000000    0.000000    0.000000
             2    0       0.000000      1.805000      1.805000    -0.000000    0.000000   -0.000000
             3    0       1.805000      0.000000      1.805000     0.000000    0.000000   -0.000000
             4    0       1.805000      1.805000      0.000000     0.000000    0.000000    0.000000
             5    0       0.000000      0.000000      3.610000    -0.000000    0.000000   -0.000000
             6    0       0.000000      1.805000      5.415000    -0.000000   -0.000000   -0.000000
             7    0       1.805000      0.000000      5.415000     0.000000    0.000000   -0.000000
             8    0       1.805000      1.805000      3.610000     0.000000    0.000000   -0.000000
             9    0       0.000000      3.610000      0.000000    -0.000000   -0.000000    0.000000
            10    0       0.000000      5.415000      1.805000    -0.000000    0.000000   -0.000000
            11    0       1.805000      3.610000      1.805000     0.000000   -0.000000   -0.000000
            12    0       1.805000      5.415000      0.000000     0.000000   -0.000000    0.000000
            13    0       0.000000      3.610000      3.610000    -0.000000   -0.000000   -0.000000
            14    0       0.000000      5.415000      5.415000    -0.000000    0.000000   -0.000000
            15    0       1.805000      3.610000      5.415000     0.000000   -0.000000   -0.000000
            16    0       1.805000      5.415000      3.610000     0.000000    0.000000   -0.000000
            17    0       3.610000      0.000000      0.000000     0.000000    0.000000    0.000000
            18    0       3.610000      1.805000      1.805000     0.000000    0.000000    0.000000
            19    0       5.415000      0.000000      1.805000    -0.000000    0.000000    0.000000
            20    0       5.415000      1.805000      0.000000    -0.000000    0.000000    0.000000
            21    0       3.610000      0.000000      3.610000     0.000000    0.000000   -0.000000
            22    0       3.610000      1.805000      5.415000     0.000000    0.000000   -0.000000
            23    0       5.415000      0.000000      5.415000    -0.000000    0.000000   -0.000000
            24    0       5.415000      1.805000      3.610000    -0.000000    0.000000   -0.000000
            25    0       3.610000      3.610000      0.000000     0.000000   -0.000000    0.000000
            26    0       3.610000      5.415000      1.805000     0.000000   -0.000000    0.000000
            27    0       5.415000      3.610000      1.805000    -0.000000   -0.000000    0.000000
            28    0       5.415000      5.415000      0.000000    -0.000000    0.000000    0.000000
            29    0       3.610000      3.610000      3.610000     0.000000   -0.000000   -0.000000
            30    0       3.610000      5.415000      5.415000     0.000000   -0.000000   -0.000000
            31    0       5.415000      3.610000      5.415000    -0.000000   -0.000000   -0.000000
            32    0       5.415000      5.415000      3.610000    -0.000000    0.000000   -0.000000
 Energy
         -0.181586342882
 PlusStress:  xx          yy          zz          yz          xz          xy
        -5.08410    -5.08410    -5.08410     0.00000    -0.00000    -0.00000
END_CFG

BEGIN_CFG
 Size
    32
 Supercell
         7.220000      0.000000      0.000000
         0.000000      7.220000      0.000000
         0.000000      0.000000      7.220000
 AtomData:  id type       cartes_x      cartes_y      cartes_z           fx          fy          fz
             1    0       0.005511     -0.018809      0.013573    -0.028826    0.090462   -0.172234
             2    0       0.017011      1.769714      1.781449    -0.084112    0.208082    0.209706
             3    0       1.807312     -0.005720      1.804696     0.056122    0.035463    0.032441
             4    0       1.789572      1.820905      0.014067     0.113073   -0.172556   -0.197980
             5    0       0.001194      0.020387      3.618455    -0.028650   -0.181904   -0.032468
             6    0      -0.015541      1.811669      5.397658     0.092342   -0.098661    0.172846
             7    0       1.820888     -0.000903      5.411657    -0.113959    0.148881    0.132717
             8    0       1.792685      1.827111      3.607205     0.127538   -0.146020    0.013511
             9    0      -0.007747      3.603631      0.009627     0.051110    0.099053   -0.011599
            10    0       0.006609      5.422465      1.812792    -0.025182   -0.092054    0.012453
            11    0       1.843734      3.602650      1.795736    -0.304214    0.071148    0.081969
            12    0       1.790282      5.426141      0.020419     0.143080   -0.090141   -0.115360
            13    0      -0.002061      3.594805      3.595088     0.078825    0.095145   -0.008344
            14    0       0.011767      5.428443      5.424823    -0.099827   -0.096834   -0.120222
            15    0       1.792964      3.614199      5.417110     0.022920    0.033549    0.022601
            16    0       1.808955      5.430761      3.614044    -0.107283   -0.157329   -0.039924
            17    0       3.622279      0.001222      0.005229    -0.146631    0.004120   -0.031826
            18    0       3.621417      1.778646      1.799218    -0.066607    0.159583    0.022012
            19    0       5.406493     -0.011555      1.800024     0.078330   -0.061631    0.084680
            20    0       5.442038      1.789341      0.017512    -0.161360    0.122051   -0.121504
            21    0       3.579564     -0.006057      3.612944     0.244619    0.058376    0.010417
            22    0       3.620602      1.817863      5.429348    -0.039607   -0.035146   -0.065962
            23    0       5.408693     -0.008362      5.430517     0.035110    0.019805   -0.170656
            24    0       5.411540      1.781928      3.589503    -0.065222    0.111166    0.098146
            25    0       3.593371      3.618992      0.002576     0.196780   -0.090830   -0.047721
            26    0       3.622488      5.407273      1.807867    -0.085377    0.076504   -0.048024
            27    0       5.426314      3.604405      1.813261    -0.086959   -0.090459   -0.119195
            28    0       5.403028      5.408434     -0.006904     0.116431   -0.046277    0.077585
            29    0       3.588372      3.618807      3.601510     0.167588   -0.116561    0.117443
            30    0       3.610226      5.423695      5.423076    -0.016623   -0.119882   -0.053696
            31    0       5.427034      3.608219      5.407344    -0.098163    0.008441    0.012192
            32    0       5.413558      5.384483      3.583828     0.034736    0.254458    0.255996
 Energy
         -0.114159597334
 PlusStress:  xx          yy          zz          yz          xz          xy
        -4.81620    -4.83289    -4.80200     0.04321     0.00012    -0.03029
END_CFG

BEGIN_CFG
 Size
    32
 Supercell
         7.220000      0.000000      0.000000
         0.000000      7.220000      0.000000
         0.000000      0.000000      7.220000
 AtomData:  id type       cartes_x      cartes_y      cartes_z           fx          fy          fz
             1    0       0.010913     -0.037275      0.026492    -0.075384    0.169878   -0.338745
             2    0       0.033703      1.735217      1.758693    -0.183479    0.408438    0.450205
             3    0       1.809838     -0.011305      1.804515     0.116945    0.069537    0.064003
             4    0       1.774573      1.836155      0.027383     0.242720   -0.333650   -0.404252
             5    0       0.002280      0.040084      3.626787    -0.036514   -0.358908   -0.068221
             6    0      -0.030732      1.817964      5.380971     0.174467   -0.177610    0.335734
             7    0       1.836343     -0.001241      5.408817    -0.231455    0.283411    0.268395
             8    0       1.780853      1.848668      3.604462     0.250164   -0.297477    0.023168
             9    0      -0.015299      3.597638      0.019211     0.098534    0.197958   -0.027286
            10    0       0.013123      5.429580      1.820631    -0.058028   -0.177214    0.035286
            11    0       1.881313      3.595569      1.786782    -0.605097    0.136728    0.163296
            12    0       1.776107      5.436939      0.040400     0.295294   -0.194969   -0.231614
            13    0      -0.003822      3.579971      3.580145     0.142796    0.185558   -0.012767
            14    0       0.023154      5.441518      5.434191    -0.189385   -0.183676   -0.224279
            15    0       1.781014      3.618525      5.419306     0.044878    0.060258    0.042699
            16    0       1.812503      5.445924      3.617936    -0.216905   -0.316782   -0.074276
            17    0       3.634001      0.002460      0.010337    -0.286363   -0.001519   -0.070001
            18    0       3.632582      1.752897      1.793520    -0.144030    0.321823    0.042561
            19    0       5.398283     -0.023343      1.795369     0.166987   -0.125895    0.162404
            20    0       5.468462      1.774145      0.034564    -0.315566    0.220311   -0.246901
            21    0       3.550056     -0.011892      3.615927     0.491516    0.134934    0.004036
            22    0       3.631054      1.830593      5.443447    -0.074155   -0.071705   -0.125684
            23    0       5.402519     -0.016649      5.445387     0.078501    0.057257   -0.320098
            24    0       5.407833      1.759278      3.569379    -0.119749    0.216529    0.197738
            25    0       3.577488      3.627639      0.004971     0.380148   -0.161265   -0.116424
            26    0       3.634652      5.399836      1.810552    -0.175044    0.154453   -0.099701
            27    0       5.437299      3.598467      1.821070    -0.177364   -0.186290   -0.248292
            28    0       5.391499      5.401692     -0.013514     0.230384   -0.091498    0.151120
            29    0       3.567380      3.627172      3.593466     0.332447   -0.217502    0.247940
            30    0       3.610389      5.431935      5.430948    -0.038487   -0.235955   -0.108665
            31    0       5.438695      3.606470      5.399735    -0.185495    0.030348    0.023856
            32    0       5.412248      5.354932      3.558626     0.066719    0.484493    0.504766
 Energy
          0.080321149398
 PlusStress:  xx          yy          zz          yz          xz          xy
        -4.04783    -4.11978    -3.98785     0.16951    -0.00128    -0.11125
END_CFG

BEGIN_CFG
 Size
    32
 Supercell
         7.220000      0.000000      0.000000
         0.000000      7.220000      0.000000
         0.000000      0.000000      7.220000
 AtomData:  id type       cartes_x      cartes_y      cartes_z           fx          fy          fz
             1    0       0.016029     -0.055095      0.038125    -0.137122    0.239002   -0.493810
             2    0       0.049697      1.702272      1.737646    -0.293056    0.596254    0.711114
             3    0       1.812808     -0.016626      1.804577     0.177802    0.100868    0.093005
             4    0       1.760496      1.850138      0.039165     0.382840   -0.475682   -0.609481
             5    0       0.003227      0.058418      3.634860    -0.026251   -0.525207   -0.105900
             6    0      -0.045261      1.823584      5.365560     0.245809   -0.236862    0.483907
             7    0       1.850920     -0.000503      5.406996    -0.348556    0.397845    0.399995
             8    0       1.769972      1.869095      3.601806     0.365608   -0.450484    0.031512
             9    0      -0.022477      3.592397      0.028691     0.142242    0.291151   -0.046961
            10    0       0.019418      5.436023      1.828604    -0.096286   -0.253182    0.064268
            11    0       1.916594      3.589008      1.778449    -0.894253    0.192161    0.241378
            12    0       1.763053      5.446996      0.059501     0.451491   -0.311499   -0.346510
            13    0      -0.005041      3.565842      3.565154     0.189002    0.269506   -0.009977
            14    0       0.033822      5.453896      5.442706    -0.267125   -0.260095   -0.312525
            15    0       1.769236      3.623079      5.421664     0.065959    0.078154    0.059140
            16    0       1.815228      5.459886      3.621546    -0.323285   -0.472534   -0.100757
            17    0       3.644635      0.003692      0.015179    -0.412258   -0.016393   -0.114072
            18    0       3.643200      1.728370      1.787983    -0.228861    0.482387    0.060781
            19    0       5.390706     -0.035610      1.791332     0.261865   -0.186275    0.228634
            20    0       5.493689      1.759785      0.050677    -0.463100    0.296080   -0.371901
            21    0       3.522413     -0.017214      3.618926     0.734217    0.222851   -0.015834
            22    0       3.641225      1.843050      5.457068    -0.104047   -0.109793   -0.179054
            23    0       5.396643     -0.024719      5.459040     0.126047    0.105882   -0.446939
            24    0       5.403671      1.737449      3.550006    -0.160651    0.315636    0.297435
            25    0       3.563049      3.635673      0.006924     0.547982   -0.214008   -0.202641
            26    0       3.646151      5.392985      1.812859    -0.265897    0.227897   -0.150481
            27    0       5.447610      3.591822      1.827936    -0.269235   -0.281191   -0.379855
            28    0       5.380845      5.394602     -0.019549     0.337689   -0.131262    0.217609
            29    0       3.547649      3.634711      3.586363     0.491077   -0.299352    0.385416
            30    0       3.610406      5.439280      5.438408    -0.065110   -0.342160   -0.162982
            31    0       5.449652      3.604836      5.392216    -0.259564    0.062277    0.035246
            32    0       5.411191      5.327220      3.535341     0.095024    0.688030    0.740240
 Energy
          0.378033829697
 PlusStress:  xx          yy          zz          yz          xz          xy
        -2.88036    -3.04606    -2.74402     0.36522    -0.00461    -0.22814
END_CFG

BEGIN_CFG
 Size
    32
 Supercell
         7.220000      0.000000      0.000000
         0.000000      7.220000      0.000000
         0.000000      0.000000      7.220000
 AtomData:  id type       cartes_x      cartes_y      cartes_z           fx          fy          fz
             1    0       0.020623     -0.072007      0.047884    -0.208581    0.300011   -0.629268
             2    0       0.064579      1.671592      1.719298    -0.404268    0.765020    0.972374
             3    0       1.816455     -0.021564      1.804991     0.232317    0.127925    0.116836
             4    0       1.747874      1.862317      0.048634     0.522399   -0.592021   -0.800086
             5    0       0.004075      0.074757      3.642531    -0.002703   -0.675001   -0.143206
             6    0      -0.058856      1.828305      5.351986     0.306787   -0.277385    0.612001
             7    0       1.864174      0.001744      5.406694    -0.459311    0.487043    0.518120
             8    0       1.760479      1.887812      3.599270     0.471016   -0.599830    0.041475
             9    0      -0.029115      3.588260      0.037995     0.183197    0.372415   -0.069893
            10    0       0.025347      5.441503      1.836821    -0.136267   -0.317340    0.092943
            11    0       1.948479      3.583175      1.771031    -1.160554    0.232966    0.311837
            12    0       1.751714      5.455870      0.077288     0.602885   -0.432692   -0.456517
            13    0      -0.005542      3.552738      3.550125     0.216168    0.344557    0.002202
            14    0       0.043476      5.465287      5.450035    -0.332348   -0.325223   -0.385037
            15    0       1.757707      3.627929      5.424246     0.086289    0.085826    0.070718
            16    0       1.816724      5.472053      3.624773    -0.418418   -0.616100   -0.117226
            17    0       3.653703      0.004863      0.019588    -0.517178   -0.039392   -0.162333
            18    0       3.652950      1.705674      1.782677    -0.315713    0.636209    0.075763
            19    0       5.384124     -0.048583      1.788163     0.357219   -0.234261    0.279145
            20    0       5.517156      1.746549      0.065379    -0.601682    0.350156   -0.490341
            21    0       3.497559     -0.021690      3.621866     0.962041    0.311895   -0.042486
            22    0       3.651000      1.855090      5.470010    -0.129613   -0.149512   -0.226789
            23    0       5.391246     -0.032387      5.470995     0.172661    0.158256   -0.550399
            24    0       5.398900      1.716819      3.531762    -0.185328    0.407427    0.395951
            25    0       3.550692      3.642894      0.008109     0.696014   -0.252844   -0.297393
            26    0       3.656640      5.386997      1.814594    -0.353891    0.289814   -0.194552
            27    0       5.456898      3.584109      1.833359    -0.360486   -0.365686   -0.502683
            28    0       5.371474      5.387015     -0.024758     0.433928   -0.160825    0.273858
            29    0       3.529782      3.641113      3.580722     0.638639   -0.359816    0.520457
            30    0       3.610177      5.445326      5.445248    -0.095154   -0.432351   -0.215117
            31    0       5.459622      3.603439      5.384832    -0.318593    0.099799    0.046553
            32    0       5.410494      5.302122      3.514867     0.118527    0.860962    0.953089
 Energy
          0.740189640423
 PlusStress:  xx          yy          zz          yz          xz          xy
        -1.47374    -1.76333    -1.24001     0.60166    -0.00686    -0.36002
END_CFG

BEGIN_CFG
 Size
    32
 Supercell
         7.220000      0.000000      0.000000
         0.000000      7.220000      0.000000
         0.000000      0.000000      7.220000
 AtomData:  id type       cartes_x      cartes_y      cartes_z           fx          fy          fz
             1    0       0.024425     -0.087779      0.055255    -0.280308    0.354894   -0.734428
             2    0       0.077924      1.643817      1.704640    -0.505713    0.908530    1.206842
             3    0       1.820985     -0.026016      1.805850     0.272965    0.149122    0.132155
             4    0       1.737237      1.872249      0.055064     0.646006   -0.677887   -0.958550
             5    0       0.004913      0.088534      3.649656     0.027975   -0.802541   -0.176914
             6    0      -0.071287      1.831974      5.340738     0.358429   -0.300699    0.714310
             7    0       1.875686      0.005841      5.408360    -0.556124    0.546382    0.611215
             8    0       1.752773      1.904251      3.596892     0.562659   -0.739357    0.055955
             9    0      -0.035056      3.585538      0.047034     0.223000    0.435391   -0.094882
            10    0       0.030760      5.445778      1.845392    -0.173126   -0.367125    0.113138
            11    0       1.975955      3.578226      1.764798    -1.388953    0.257181    0.368498
            12    0       1.742663      5.463099      0.093340     0.738119   -0.548453   -0.556712
            13    0      -0.005222      3.540942      3.535105     0.224476    0.407539    0.024794
            14    0       0.051867      5.475443      5.455902    -0.384940   -0.379254   -0.442593
            15    0       1.746506      3.633104      5.427096     0.105970    0.082393    0.076241
            16    0       1.816633      5.481882      3.627553    -0.491567   -0.736104   -0.121979
            17    0       3.660805      0.005886      0.023378    -0.594285   -0.068774   -0.211644
            18    0       3.661501      1.685392      1.777659    -0.398019    0.776906    0.085660
            19    0       5.378899     -0.062448      1.786054     0.444757   -0.261690    0.310516
            20    0       5.538340      1.734642      0.078219    -0.726850    0.383932   -0.594333
            21    0       3.476357     -0.024981      3.624646     1.160132    0.389039   -0.066862
            22    0       3.660283      1.866561      5.482091    -0.151087   -0.190976   -0.270095
            23    0       5.386505     -0.039454      5.480860     0.212905    0.206942   -0.629842
            24    0       5.393425      1.697736      3.515023    -0.191882    0.489662    0.491492
            25    0       3.540980      3.649156      0.008164     0.816585   -0.281256   -0.386458
            26    0       3.665784      5.382107      1.815590    -0.434278    0.332936   -0.225610
            27    0       5.464817      3.575007      1.836874    -0.448673   -0.427756   -0.602551
            28    0       5.363752      5.378816     -0.028927     0.514720   -0.175588    0.316589
            29    0       3.514338      3.646151      3.577056     0.768976   -0.397970    0.640832
            30    0       3.609587      5.449733      5.451269    -0.126419   -0.500169   -0.263160
            31    0       5.468381      3.602423      5.377624    -0.361295    0.137930    0.057992
            32    0       5.410247      5.280295      3.498012     0.135843    0.996819    1.130383
 Energy
          1.116650485869
 PlusStress:  xx          yy          zz          yz          xz          xy
        -0.03352    -0.45780     0.30669     0.84069    -0.00090    -0.49161
END_CFG

BEGIN_CFG
 Size
    32
 Supercell
         7.220000      0.000000      0.000000
         0.000000      7.220000      0.000000
         0.000000      0.000000      7.220000
 AtomData:  id type       cartes_x      cartes_y      cartes_z           fx          fy          fz
             1    0       0.027162     -0.102201      0.059838    -0.341012    0.405532   -0.798099
             2    0       0.089350      1.619495      1.694561    -0.584956    1.021501    1.383407
             3    0       1.826554     -0.029900      1.807212     0.292253    0.162896    0.135764
             4    0       1.729054      1.879609      0.057856     0.736434   -0.731281   -1.065944
             5    0       0.005859      0.099265      3.656109     0.059236   -0.902438   -0.203325
             6    0      -0.082358      1.834503      5.332204     0.401523   -0.308762    0.785223
             7    0       1.885088      0.012012      5.412347    -0.630983    0.572176    0.667158
             8    0       1.747205      1.917883      3.594728     0.637293   -0.861896    0.077627
             9    0      -0.040150      3.584470      0.055717     0.263216    0.474360   -0.120721
            10    0       0.035515      5.448656      1.854393    -0.202195   -0.399713    0.116182
            11    0       1.998157      3.574253      1.759964    -1.563537    0.264081    0.404773
            12    0       1.736416      5.468242      0.107278     0.844454   -0.646542   -0.641874
            13    0      -0.004050      3.530695      3.520181     0.215597    0.454107    0.058234
            14    0       0.058796      5.484157      5.460087    -0.425243   -0.422740   -0.485654
            15    0       1.735706      3.638589      5.430235     0.125178    0.067473    0.074757
            16    0       1.814676      5.488916      3.629869    -0.530880   -0.820239   -0.114407
            17    0       3.665647      0.006649      0.026364    -0.637908   -0.102088   -0.257653
            18    0       3.668543      1.668060      1.772967    -0.468052    0.897116    0.088920
            19    0       5.375361     -0.077309      1.785125     0.515861   -0.260199    0.320785
            20    0       5.556762      1.724191      0.088802    -0.832661    0.398817   -0.676547
            21    0       3.459560     -0.026795      3.627172     1.311249    0.440828   -0.079204
            22    0       3.668993      1.877307      5.493148    -0.169043   -0.234527   -0.310152
            23    0       5.382571     -0.045734      5.488331     0.241713    0.245420   -0.684844
            24    0       5.387219      1.680510      3.500151    -0.179178    0.559656    0.581643
            25    0       3.534371      3.654349      0.006751     0.901069   -0.302899   -0.452911
            26    0       3.673279      5.378476      1.815729    -0.501760    0.350917   -0.237771
            27    0       5.471031      3.564279      1.838100    -0.530820   -0.455047   -0.664671
            28    0       5.357987      5.369950     -0.031894     0.576178   -0.171880    0.342866
            29    0       3.501813      3.649680      3.575822     0.875270   -0.414438    0.733158
            30    0       3.608519      5.452242      5.456290    -0.156075   -0.540431   -0.305415
            31    0       5.475766      3.601931      5.370635    -0.386762    0.171576    0.069881
            32    0       5.410512      5.262255      3.485453     0.144543    1.088667    1.258816
 Energy
          1.453381771897
 PlusStress:  xx          yy          zz          yz          xz          xy
         1.22863     0.68690     1.67159     1.04478     0.02276    -0.60999
END_CFG

BEGIN_CFG
 Size
    32
 Supercell
         7.220000      0.000000      0.000000
         0.000000      7.220000      0.000000
         0.000000      0.000000      7.220000
 AtomData:  id type       cartes_x      cartes_y      cartes_z           fx          fy          fz
             1    0       0.028605     -0.115082      0.061392    -0.379736    0.452289   -0.811276
             2    0       0.098556      1.599049      1.689728    -0.631696    1.099763    1.474863
             3    0       1.833234     -0.033165      1.809093     0.284248    0.168028    0.125514
             4    0       1.723667      1.884195      0.056600     0.779392   -0.752715   -1.106407
             5    0       0.007032      0.106571      3.661788     0.085392   -0.969948   -0.218843
             6    0      -0.091907      1.835860      5.326653     0.436684   -0.303891    0.820422
             7    0       1.892096      0.020356      5.418869    -0.677524    0.562202    0.675747
             8    0       1.744060      1.928243      3.592860     0.691305   -0.960113    0.108030
             9    0      -0.044245      3.585205      0.063946     0.304756    0.485096   -0.146092
            10    0       0.039501      5.450013      1.863836    -0.219536   -0.413382    0.094563
            11    0       2.014422      3.571280      1.756668    -1.670534    0.255075    0.415649
            12    0       1.733378      5.470925      0.118775     0.909710   -0.714500   -0.707064
            13    0      -0.002059      3.522174      3.505478     0.192895    0.480208    0.101441
            14    0       0.064111      5.491266      5.462430    -0.453890   -0.456373   -0.514240
            15    0       1.725380      3.644328      5.433656     0.144201    0.041122    0.065696
            16    0       1.810705      5.492837      3.631747    -0.526584   -0.858853   -0.095431
            17    0       3.668064      0.007028      0.028370    -0.644377   -0.136350   -0.295353
            18    0       3.673810      1.654132      1.768613    -0.518895    0.989942    0.084354
            19    0       5.373782     -0.093160      1.785414     0.562809   -0.223745    0.309958
            20    0       5.572021      1.715252      0.096815    -0.912633    0.396621   -0.730954
            21    0       3.447743     -0.026933      3.629396     1.400600    0.456042   -0.071422
            22    0       3.677061      1.887164      5.503029    -0.183689   -0.280079   -0.348170
            23    0       5.379556     -0.051082      5.493199     0.255162    0.268841   -0.715486
            24    0       5.380329      1.665409      3.487489    -0.147285    0.614982    0.663329
            25    0       3.531189      3.658393      0.003615     0.941186   -0.321071   -0.480148
            26    0       3.678866      5.376170      1.814965    -0.551913    0.339995   -0.227355
            27    0       5.475228      3.551822      1.836802    -0.603279   -0.438298   -0.677509
            28    0       5.354410      5.360430     -0.033559     0.615324   -0.147369    0.350848
            29    0       3.492611      3.651638      3.577371     0.950601   -0.411758    0.785142
            30    0       3.606860      5.452701      5.460149    -0.180934   -0.549826   -0.340235
            31    0       5.481680      3.602093      5.363909    -0.394505    0.195920    0.082715
            32    0       5.411322      5.248353      3.477679     0.142745    1.132145    1.327712
 Energy
          1.703100485878
 PlusStress:  xx          yy          zz          yz          xz          xy
         2.13533     1.52016     2.66207     1.18243     0.07096    -0.70314
END_CFG

BEGIN_CFG
 Size
    32
 Supercell
         7.220000      0.000000      0.000000
         0.000000      7.220000      0.000000
         0.000000      0.000000      7.220000
 AtomData:  id type       cartes_x      cartes_y      cartes_z           fx          fy          fz
             1    0       0.028606     -0.126245      0.059868    -0.388234    0.493822   -0.770170
             2    0       0.105366      1.582773      1.690481    -0.641991    1.141598    1.464771
             3    0       1.840996     -0.035789      1.811456     0.245958    0.163938    0.101306