BEGIN_CFG
 Size
    2
 AtomData:  id type       cartes_x      cartes_y      cartes_z           fx          fy          fz
             1    0       0.047618     -0.000000     -0.000000    -0.001418    0.000000    0.000000
             2    1      -0.884804      0.000000      0.000000     0.001418    0.000000    0.000000
 Energy
       -142.121641760281
 PlusStress:  xx          yy          zz          yz          xz          xy
        -0.00132     0.00000     0.00000     0.00000     0.00000     0.00000
END_CFG

BEGIN_CFG
 Size
    2
 AtomData:  id type       cartes_x      cartes_y      cartes_z           fx          fy          fz
             1    0      -0.705528     -0.735631      0.663813    -0.598122    0.332933   -0.872170
             2    1      -1.222016     -0.448138     -0.089319     0.598122   -0.332933    0.872170
 Energy
       -142.107221345471
 PlusStress:  xx          yy          zz          yz          xz          xy
        -0.30892    -0.09572    -0.65686     0.25074    -0.45047     0.17196
END_CFG

BEGIN_CFG
 Size
    2
 AtomData:  id type       cartes_x      cartes_y      cartes_z           fx          fy          fz
             1    0       0.452216     -0.396591      0.045269     2.396509    0.173628   -2.418641
             2    1       1.188305     -0.343261     -0.697618    -2.396509   -0.173628    2.418641
 Energy
       -141.888507406326
 PlusStress:  xx          yy          zz          yz          xz          xy
        -1.76404    -0.00926    -1.79678     0.12899     1.78034    -0.12781
END_CFG

BEGIN_CFG
 Size
    2
 AtomData:  id type       cartes_x      cartes_y      cartes_z           fx          fy          fz
             1    0       0.736369     -0.685311      0.154520     1.891086   -0.997576   -0.476748
             2    1       1.590754     -1.136012     -0.060873    -1.891086    0.997576    0.476748
 Energy
       -142.053005417675
 PlusStress:  xx          yy          zz          yz          xz          xy
        -1.61572    -0.44961    -0.10269    -0.21487     0.40733     0.85231
END_CFG

BEGIN_CFG
 Size
    2
 AtomData:  id type       cartes_x      cartes_y      cartes_z           fx          fy          fz
             1    0       1.340989     -1.151297      0.723919     0.340388    0.781117    0.421839
             2    1       1.013459     -1.902908      0.318014    -0.340388   -0.781117   -0.421839
 Energy
       -142.113530819114
 PlusStress:  xx          yy          zz          yz          xz          xy
         0.11149     0.58710     0.17123     0.31706     0.13817     0.25584
END_CFG

BEGIN_CFG
 Size
    2
 AtomData:  id type       cartes_x      cartes_y      cartes_z           fx          fy          fz
             1    0       1.478810     -1.771776      0.668846    -1.538394    0.008811   -0.129164
             2    1       0.513058     -1.766245      0.587761     1.538394   -0.008811    0.129164
 Energy
       -142.091570580912
 PlusStress:  xx          yy          zz          yz          xz          xy
        -1.48571    -0.00005    -0.01047     0.00071    -0.12474     0.00851
END_CFG

BEGIN_CFG
 Size
    2
 AtomData:  id type       cartes_x      cartes_y      cartes_z           fx          fy          fz
             1    0       2.381766     -2.430399     -0.010757    -0.098715    0.705209   -1.003655
             2    1       2.304713     -1.879940     -0.794171     0.098715   -0.705209    1.003655
 Energy
       -142.103524745687
 PlusStress:  xx          yy          zz          yz          xz          xy
        -0.00761    -0.38819    -0.78628     0.55247    -0.07733     0.05434
END_CFG

BEGIN_CFG
 Size
    2
 AtomData:  id type       cartes_x      cartes_y      cartes_z           fx          fy          fz
             1    0       2.665253     -1.459371      0.864583     0.366681   -0.422703    0.128666
             2    1       3.268481     -2.154761      1.076252    -0.366681    0.422703   -0.128666
 Energy
       -142.118071552943
 PlusStress:  xx          yy          zz          yz          xz          xy
        -0.22119    -0.29394    -0.02723     0.08947    -0.07761     0.25499
END_CFG

BEGIN_CFG
 Size
    2
 AtomData:  id type       cartes_x      cartes_y      cartes_z           fx          fy          fz
             1    0       2.714228     -1.570115      0.671301    -0.298361   -1.116733   -0.321347
             2    1       2.475549     -2.463465      0.414234     0.298361    1.116733    0.321347
 Energy
       -142.104508410004
 PlusStress:  xx          yy          zz          yz          xz          xy
        -0.07121    -0.99763    -0.08261    -0.28708    -0.07670    -0.26654
END_CFG

BEGIN_CFG
 Size
    2
 AtomData:  id type       cartes_x      cartes_y      cartes_z           fx          fy          fz
             1    0       2.145116     -1.206788      1.531789    -0.977742    2.075807   -2.379734
             2    1       1.837336     -0.553352      0.782681     0.977742   -2.075807    2.379734
 Energy
       -141.910515217617
 PlusStress:  xx          yy          zz          yz          xz          xy
        -0.30093    -1.35641    -1.78268     1.55500    -0.73243     0.63889
END_CFG

BEGIN_CFG
 Size
    2
 AtomData:  id type       cartes_x      cartes_y      cartes_z           fx          fy          fz
             1    0       2.251108     -1.407324      1.505717     0.528385    0.270349   -0.651555
             2    1       1.701935     -1.688309      2.182906    -0.528385   -0.270349    0.651555
 Energy
       -142.114618794765
 PlusStress:  xx          yy          zz          yz          xz          xy
         0.29017     0.07596     0.44123    -0.18308    -0.35782     0.14847
END_CFG

BEGIN_CFG
 Size
    2
 AtomData:  id type       cartes_x      cartes_y      cartes_z           fx          fy          fz
             1    0       0.879369     -1.826707      1.459465     1.777472    1.524835    6.300853
             2    1       0.656092     -2.018249      0.667984    -1.777472   -1.524835   -6.300853
 Energy
       -141.864109973599
 PlusStress:  xx          yy          zz          yz          xz          xy
         0.39687     0.29207     4.98701     1.20688     1.40684     0.34046
END_CFG

BEGIN_CFG
 Size
    2
 AtomData:  id type       cartes_x      cartes_y      cartes_z           fx          fy          fz
             1    0       0.635198     -2.003738      0.352333    -0.578082    0.689027    0.992945
             2    1       0.219466     -1.508219      1.066417     0.578082   -0.689027   -0.992945
 Energy
       -142.099777860269
 PlusStress:  xx          yy          zz          yz          xz          xy
        -0.24033    -0.34143    -0.70905    -0.49202     0.41280     0.28645
END_CFG

BEGIN_CFG
 Size
    2
 AtomData:  id type       cartes_x      cartes_y      cartes_z           fx          fy          fz
             1    0       0.860419     -2.049810     -0.380085    -0.001172   -0.000089   -0.010094
             2    1       0.967902     -2.041677      0.545852     0.001172    0.000089    0.010094
 Energy
       -142.121640746178
 PlusStress:  xx          yy          zz          yz          xz          xy
         0.00013     0.00000     0.00935     0.00008     0.00108     0.00001
END_CFG

BEGIN_CFG
 Size
    2
 AtomData:  id type       cartes_x      cartes_y      cartes_z           fx          fy          fz
             1    0       0.980361     -2.590884     -0.582982     0.502666   -0.602097   -0.310304
             2    1       1.547002     -3.269611     -0.932779    -0.502666    0.602097    0.310304
 Energy
       -142.113629535810
 PlusStress:  xx          yy          zz          yz          xz          xy
        -0.28483    -0.40866    -0.10854    -0.21061     0.17583     0.34117
END_CFG

BEGIN_CFG
 Size
    2
 AtomData:  id type       cartes_x      cartes_y      cartes_z           fx          fy          fz
             1    0       1.128719     -3.808006     -0.583660     3.122225   -2.035883    1.110418
             2    1       0.427391     -3.350697     -0.833087    -3.122225    2.035883   -1.110418
 Energy
       -142.017479050664
 PlusStress:  xx          yy          zz          yz          xz          xy
         2.18970     0.93103     0.27697    -0.50780     0.77877    -1.42782
END_CFG

BEGIN_CFG
 Size
    2
 AtomData:  id type       cartes_x      cartes_y      cartes_z           fx          fy          fz
             1    0       0.703395     -3.957362     -0.703419    -1.695131   -0.720842    0.375792
             2    1      -0.179621     -4.332858     -0.507664     1.695131    0.720842   -0.375792
 Energy
       -142.074187564125
 PlusStress:  xx          yy          zz          yz          xz          xy
        -1.49683    -0.27067    -0.07356     0.14111     0.33183    -0.63652
END_CFG

BEGIN_CFG
 Size
    2
 AtomData:  id type       cartes_x      cartes_y      cartes_z           fx          fy          fz
             1    0       0.936339     -2.994272     -0.611753     1.514919    0.792849   -2.527938
             2    1       1.445791     -2.727645     -1.461873    -1.514919   -0.792849    2.527938
 Energy
       -141.955985803502
 PlusStress:  xx          yy          zz          yz          xz          xy
        -0.77178    -0.21139    -2.14905     0.67402     1.28786    -0.40392
END_CFG

BEGIN_CFG
 Size
    2
 AtomData:  id type       cartes_x      cartes_y      cartes_z           fx          fy          fz
             1    0       0.956766     -3.546288     -0.391374     4.152372   -1.944459   -0.432346
             2    1       0.176409     -3.180865     -0.310123    -4.152372    1.944459    0.432346
 Energy
       -141.983044660899
 PlusStress:  xx          yy          zz          yz          xz          xy
         3.24033     0.71055     0.03513     0.15799    -0.33738    -1.51737
END_CFG

BEGIN_CFG
 Size
    2
 AtomData:  id type       cartes_x      cartes_y      cartes_z           fx          fy          fz
             1    0       1.256892     -3.934494     -0.125723     1.035633   -1.439671   -0.288441
             2    1       0.737379     -3.212300      0.018970    -1.035633    1.439671    0.288441
 Energy
       -142.095071755001
 PlusStress:  xx          yy          zz          yz          xz          xy
         0.53802     1.03972     0.04174     0.20831    -0.14985    -0.74793
END_CFG

BEGIN_CFG
 Size
    2
 AtomData:  id type       cartes_x      cartes_y      cartes_z           fx          fy          fz
             1    0       1.558962     -4.003930      0.080752    -1.725889   -1.859217    1.617726
             2    1       0.971509     -4.636765      0.631389     1.725889    1.859217   -1.617726
 Energy
       -141.962714916279
 PlusStress:  xx          yy          zz          yz          xz          xy
        -1.01388    -1.17658    -0.89078     1.02375     0.95034    -1.09220
END_CFG

