BEGIN_CFG
 Size
    2
 AtomData:  id type       cartes_x      cartes_y      cartes_z           fx          fy          fz
             1    0       0.047618     -0.000000     -0.000000    -0.002631    0.000000    0.000000
             2    1      -0.884804      0.000000      0.000000     0.002631    0.000000    0.000000
 Energy
       -142.121645314385
 PlusStress:  xx          yy          zz          yz          xz          xy
        -0.00245     0.00000     0.00000     0.00000     0.00000     0.00000
END_CFG

BEGIN_CFG
 Size
    2
 AtomData:  id type       cartes_x      cartes_y      cartes_z           fx          fy          fz
             1    0      -0.705528     -0.735631      0.663813    -0.598556    0.333175   -0.872802
             2    1      -1.222016     -0.448138     -0.089319     0.598556   -0.333175    0.872802
 Energy
       -142.107195282968
 PlusStress:  xx          yy          zz          yz          xz          xy
        -0.30915    -0.09579    -0.65734     0.25092    -0.45079     0.17208
END_CFG

BEGIN_CFG
 Size
    2
 AtomData:  id type       cartes_x      cartes_y      cartes_z           fx          fy          fz
             1    0       0.452216     -0.396591      0.045269     2.398548    0.173776   -2.420699
             2    1       1.188305     -0.343261     -0.697618    -2.398548   -0.173776    2.420699
 Energy
       -141.888592369571
 PlusStress:  xx          yy          zz          yz          xz          xy
        -1.76554    -0.00927    -1.79831     0.12910     1.78185    -0.12791
END_CFG

BEGIN_CFG
 Size
    2
 AtomData:  id type       cartes_x      cartes_y      cartes_z           fx          fy          fz
             1    0       0.736369     -0.685311      0.154520     1.889490   -0.996734   -0.476346
             2    1       1.590754     -1.136012     -0.060873    -1.889490    0.996734    0.476346
 Energy
       -142.052993729252
 PlusStress:  xx          yy          zz          yz          xz          xy
        -1.61435    -0.44923    -0.10260    -0.21469     0.40698     0.85159
END_CFG

BEGIN_CFG
 Size
    2
 AtomData:  id type       cartes_x      cartes_y      cartes_z           fx          fy          fz
             1    0       1.340989     -1.151297      0.723919     0.340301    0.780917    0.421732
             2    1       1.013459     -1.902908      0.318014    -0.340301   -0.780917   -0.421732
 Energy
       -142.113548533649
 PlusStress:  xx          yy          zz          yz          xz          xy
         0.11146     0.58695     0.17118     0.31698     0.13813     0.25577
END_CFG

BEGIN_CFG
 Size
    2
 AtomData:  id type       cartes_x      cartes_y      cartes_z           fx          fy          fz
             1    0       1.478810     -1.771776      0.668846    -1.538364    0.008810   -0.129162
             2    1       0.513058     -1.766245      0.587761     1.538364   -0.008810    0.129162
 Energy
       -142.091539667145
 PlusStress:  xx          yy          zz          yz          xz          xy
        -1.48568    -0.00005    -0.01047     0.00071    -0.12474     0.00851
END_CFG

BEGIN_CFG
 Size
    2
 AtomData:  id type       cartes_x      cartes_y      cartes_z           fx          fy          fz
             1    0       2.381766     -2.430399     -0.010757    -0.098764    0.705560   -1.004153
             2    1       2.304713     -1.879940     -0.794171     0.098764   -0.705560    1.004153
 Energy
       -142.103496441177
 PlusStress:  xx          yy          zz          yz          xz          xy
        -0.00761    -0.38838    -0.78667     0.55275    -0.07737     0.05437
END_CFG

BEGIN_CFG
 Size
    2
 AtomData:  id type       cartes_x      cartes_y      cartes_z           fx          fy          fz
             1    0       2.665253     -1.459371      0.864583     0.367498   -0.423645    0.128953
             2    1       3.268481     -2.154761      1.076252    -0.367498    0.423645   -0.128953
 Energy
       -142.118059396536
 PlusStress:  xx          yy          zz          yz          xz          xy
        -0.22169    -0.29460    -0.02730     0.08967    -0.07779     0.25555
END_CFG

BEGIN_CFG
 Size
    2
 AtomData:  id type       cartes_x      cartes_y      cartes_z           fx          fy          fz
             1    0       2.714228     -1.570115      0.671301    -0.298526   -1.117350   -0.321524
             2    1       2.475549     -2.463465      0.414234     0.298526    1.117350    0.321524
 Energy
       -142.104480621241
 PlusStress:  xx          yy          zz          yz          xz          xy
        -0.07125    -0.99818    -0.08265    -0.28723    -0.07674    -0.26669
END_CFG

BEGIN_CFG
 Size
    2
 AtomData:  id type       cartes_x      cartes_y      cartes_z           fx          fy          fz
             1    0       2.145116     -1.206788      1.531789    -0.977953    2.076255   -2.380247
             2    1       1.837336     -0.553352      0.782681     0.977953   -2.076255    2.380247
 Energy
       -141.910611678060
 PlusStress:  xx          yy          zz          yz          xz          xy
        -0.30099    -1.35670    -1.78306     1.55534    -0.73259     0.63903
END_CFG

BEGIN_CFG
 Size
    2
 AtomData:  id type       cartes_x      cartes_y      cartes_z           fx          fy          fz
             1    0       2.251108     -1.407324      1.505717     0.528184    0.270246   -0.651307
             2    1       1.701935     -1.688309      2.182906    -0.528184   -0.270246    0.651307
 Energy
       -142.114636165580
 PlusStress:  xx          yy          zz          yz          xz          xy
         0.29006     0.07594     0.44106    -0.18301    -0.35768     0.14841
END_CFG

BEGIN_CFG
 Size
    2
 AtomData:  id type       cartes_x      cartes_y      cartes_z           fx          fy          fz
             1    0       0.879369     -1.826707      1.459465     1.776689    1.524163    6.298077
             2    1       0.656092     -2.018249      0.667984    -1.776689   -1.524163   -6.298077
 Energy
       -141.864035504154
 PlusStress:  xx          yy          zz          yz          xz          xy
         0.39669     0.29194     4.98481     1.20635     1.40622     0.34031
END_CFG

BEGIN_CFG
 Size
    2
 AtomData:  id type       cartes_x      cartes_y      cartes_z           fx          fy          fz
             1    0       0.635198     -2.003738      0.352333    -0.578259    0.689239    0.993250
             2    1       0.219466     -1.508219      1.066417     0.578259   -0.689239   -0.993250
 Energy
       -142.099748060827
 PlusStress:  xx          yy          zz          yz          xz          xy
        -0.24040    -0.34153    -0.70926    -0.49217     0.41293     0.28654
END_CFG

BEGIN_CFG
 Size
    2
 AtomData:  id type       cartes_x      cartes_y      cartes_z           fx          fy          fz
             1    0       0.860419     -2.049810     -0.380085    -0.001032   -0.000078   -0.008894
             2    1       0.967902     -2.041677      0.545852     0.001032    0.000078    0.008894
 Energy
       -142.121644581201
 PlusStress:  xx          yy          zz          yz          xz          xy
         0.00011     0.00000     0.00824     0.00007     0.00096     0.00001
END_CFG

BEGIN_CFG
 Size
    2
 AtomData:  id type       cartes_x      cartes_y      cartes_z           fx          fy          fz
             1    0       0.980361     -2.590884     -0.582982     0.503329   -0.602891   -0.310713
             2    1       1.547002     -3.269611     -0.932779    -0.503329    0.602891    0.310713
 Energy
       -142.113609826472
 PlusStress:  xx          yy          zz          yz          xz          xy
        -0.28521    -0.40920    -0.10869    -0.21089     0.17606     0.34162
END_CFG

BEGIN_CFG
 Size
    2
 AtomData:  id type       cartes_x      cartes_y      cartes_z           fx          fy          fz
             1    0       1.128719     -3.808006     -0.583660     3.124442   -2.037328    1.111206
             2    1       0.427391     -3.350697     -0.833087    -3.124442    2.037328   -1.111206
 Energy
       -142.017433800111
 PlusStress:  xx          yy          zz          yz          xz          xy
         2.19126     0.93169     0.27716    -0.50816     0.77932    -1.42884
END_CFG

BEGIN_CFG
 Size
    2
 AtomData:  id type       cartes_x      cartes_y      cartes_z           fx          fy          fz
             1    0       0.703395     -3.957362     -0.703419    -1.694299   -0.720488    0.375608
             2    1      -0.179621     -4.332858     -0.507664     1.694299    0.720488   -0.375608
 Energy
       -142.074161404567
 PlusStress:  xx          yy          zz          yz          xz          xy
        -1.49609    -0.27054    -0.07353     0.14104     0.33167    -0.63620
END_CFG

BEGIN_CFG
 Size
    2
 AtomData:  id type       cartes_x      cartes_y      cartes_z           fx          fy          fz
             1    0       0.936339     -2.994272     -0.611753     1.513865    0.792297   -2.526179
             2    1       1.445791     -2.727645     -1.461873    -1.513865   -0.792297    2.526179
 Energy
       -141.956069324046
 PlusStress:  xx          yy          zz          yz          xz          xy
        -0.77124    -0.21125    -2.14755     0.67355     1.28697    -0.40364
END_CFG

BEGIN_CFG
 Size
    2
 AtomData:  id type       cartes_x      cartes_y      cartes_z           fx          fy          fz
             1    0       0.956766     -3.546288     -0.391374     4.154532   -1.945471   -0.432571
             2    1       0.176409     -3.180865     -0.310123    -4.154532    1.945471    0.432571
 Energy
       -141.982978034254
 PlusStress:  xx          yy          zz          yz          xz          xy
         3.24202     0.71092     0.03515     0.15807    -0.33756    -1.51816
END_CFG

BEGIN_CFG
 Size
    2
 AtomData:  id type       cartes_x      cartes_y      cartes_z           fx          fy          fz
             1    0       1.256892     -3.934494     -0.125723     1.036198   -1.440456   -0.288598
             2    1       0.737379     -3.212300      0.018970    -1.036198    1.440456    0.288598
 Energy
       -142.095084736359
 PlusStress:  xx          yy          zz          yz          xz          xy
         0.53832     1.04029     0.04176     0.20842    -0.14993    -0.74834
END_CFG

BEGIN_CFG
 Size
    2
 AtomData:  id type       cartes_x      cartes_y      cartes_z           fx          fy          fz
             1    0       1.558962     -4.003930      0.080752    -1.724533   -1.857757    1.616455
             2    1       0.971509     -4.636765      0.631389     1.724533    1.857757   -1.616455
 Energy
       -141.962793445666
 PlusStress:  xx          yy          zz          yz          xz          xy
        -1.01308    -1.17565    -0.89008     1.02295     0.94959    -1.09134
END_CFG

