BEGIN_CFG
 Size
    32
 Supercell
         7.220000      0.000000      0.000000
         0.000000      7.220000      0.000000
         0.000000      0.000000      7.220000
 AtomData:  id type       cartes_x      cartes_y      cartes_z           fx          fy          fz
             1    0       0.000000      0.000000      0.000000     0.000000    0.000000    0.000000
             2    0       0.000000      1.805000      1.805000     0.000000   -0.000000    0.000000
             3    0       1.805000      0.000000      1.805000     0.000000    0.000000    0.000000
             4    0       1.805000      1.805000      0.000000     0.000000    0.000000    0.000000
             5    0       0.000000      0.000000      3.610000     0.000000    0.000000    0.000000
             6    0       0.000000      1.805000      5.415000     0.000000   -0.000000   -0.000000
             7    0       1.805000      0.000000      5.415000     0.000000    0.000000   -0.000000
             8    0       1.805000      1.805000      3.610000     0.000000    0.000000   -0.000000
             9    0       0.000000      3.610000      0.000000     0.000000    0.000000    0.000000
            10    0       0.000000      5.415000      1.805000     0.000000   -0.000000    0.000000
            11    0       1.805000      3.610000      1.805000     0.000000   -0.000000   -0.000000
            12    0       1.805000      5.415000      0.000000     0.000000   -0.000000    0.000000
            13    0       0.000000      3.610000      3.610000     0.000000   -0.000000   -0.000000
            14    0       0.000000      5.415000      5.415000     0.000000   -0.000000   -0.000000
            15    0       1.805000      3.610000      5.415000     0.000000   -0.000000   -0.000000
            16    0       1.805000      5.415000      3.610000     0.000000   -0.000000    0.000000
            17    0       3.610000      0.000000      0.000000     0.000000    0.000000    0.000000
            18    0       3.610000      1.805000      1.805000    -0.000000   -0.000000   -0.000000
            19    0       5.415000      0.000000      1.805000    -0.000000    0.000000    0.000000
            20    0       5.415000      1.805000      0.000000    -0.000000    0.000000    0.000000
            21    0       3.610000      0.000000      3.610000     0.000000    0.000000    0.000000
            22    0       3.610000      1.805000      5.415000     0.000000   -0.000000   -0.000000
            23    0       5.415000      0.000000      5.415000    -0.000000    0.000000   -0.000000
            24    0       5.415000      1.805000      3.610000    -0.000000    0.000000    0.000000
            25    0       3.610000      3.610000      0.000000     0.000000    0.000000    0.000000
            26    0       3.610000      5.415000      1.805000    -0.000000   -0.000000    0.000000
            27    0       5.415000      3.610000      1.805000    -0.000000   -0.000000    0.000000
            28    0       5.415000      5.415000      0.000000    -0.000000   -0.000000    0.000000
            29    0       3.610000      3.610000      3.610000    -0.000000   -0.000000   -0.000000
            30    0       3.610000      5.415000      5.415000     0.000000   -0.000000   -0.000000
            31    0       5.415000      3.610000      5.415000    -0.000000    0.000000   -0.000000
            32    0       5.415000      5.415000      3.610000    -0.000000   -0.000000    0.000000
 Energy
         -0.181808363475
 PlusStress:  xx          yy          zz          yz          xz          xy
        -5.12584    -5.12584    -5.12584     0.00000     0.00000     0.00000
END_CFG

BEGIN_CFG
 Size
    32
 Supercell
         7.220000      0.000000      0.000000
         0.000000      7.220000      0.000000
         0.000000      0.000000      7.220000
 AtomData:  id type       cartes_x      cartes_y      cartes_z           fx          fy          fz
             1    0       0.005511     -0.018809      0.013573    -0.028754    0.090476   -0.172179
             2    0       0.017011      1.769714      1.781449    -0.084182    0.208125    0.209627
             3    0       1.807312     -0.005720      1.804696     0.056218    0.035437    0.032376
             4    0       1.789572      1.820905      0.014067     0.113133   -0.172515   -0.197881
             5    0       0.001194      0.020387      3.618455    -0.028632   -0.181959   -0.032484
             6    0      -0.015541      1.811669      5.397658     0.092317   -0.098686    0.172855
             7    0       1.820888     -0.000903      5.411657    -0.113929    0.148844    0.132726
             8    0       1.792685      1.827111      3.607205     0.127528   -0.145996    0.013484
             9    0      -0.007747      3.603631      0.009627     0.051145    0.098999   -0.011558
            10    0       0.006609      5.422465      1.812792    -0.025148   -0.092034    0.012460
            11    0       1.843734      3.602650      1.795736    -0.304236    0.071138    0.081955
            12    0       1.790282      5.426141      0.020419     0.143024   -0.090170   -0.115300
            13    0      -0.002061      3.594805      3.595088     0.078881    0.095208   -0.008340
            14    0       0.011767      5.428443      5.424823    -0.099893   -0.096769   -0.120238
            15    0       1.792964      3.614199      5.417110     0.022983    0.033500    0.022566
            16    0       1.808955      5.430761      3.614044    -0.107289   -0.157290   -0.039955
            17    0       3.622279      0.001222      0.005229    -0.146700    0.004121   -0.031855
            18    0       3.621417      1.778646      1.799218    -0.066587    0.159522    0.021970
            19    0       5.406493     -0.011555      1.800024     0.078254   -0.061629    0.084748
            20    0       5.442038      1.789341      0.017512    -0.161378    0.122089   -0.121468
            21    0       3.579564     -0.006057      3.612944     0.244584    0.058434    0.010467
            22    0       3.620602      1.817863      5.429348    -0.039655   -0.035199   -0.065925
            23    0       5.408693     -0.008362      5.430517     0.035119    0.019786   -0.170735
            24    0       5.411540      1.781928      3.589503    -0.065159    0.111138    0.098139
            25    0       3.593371      3.618992      0.002576     0.196756   -0.090828   -0.047663
            26    0       3.622488      5.407273      1.807867    -0.085434    0.076496   -0.048050
            27    0       5.426314      3.604405      1.813261    -0.086938   -0.090422   -0.119215
            28    0       5.403028      5.408434     -0.006904     0.116519   -0.046300    0.077630
            29    0       3.588372      3.618807      3.601510     0.167509   -0.116624    0.117389
            30    0       3.610226      5.423695      5.423076    -0.016577   -0.119803   -0.053683
            31    0       5.427034      3.608219      5.407344    -0.098247    0.008464    0.012239
            32    0       5.413558      5.384483      3.583828     0.034769    0.254448    0.255898
 Energy
         -0.114387311764
 PlusStress:  xx          yy          zz          yz          xz          xy
        -4.85246    -4.86940    -4.83944     0.04422     0.00003    -0.03057
END_CFG

BEGIN_CFG
 Size
    32
 Supercell
         7.220000      0.000000      0.000000
         0.000000      7.220000      0.000000
         0.000000      0.000000      7.220000
 AtomData:  id type       cartes_x      cartes_y      cartes_z           fx          fy          fz
             1    0       0.010913     -0.037275      0.026492    -0.075381    0.169971   -0.338689
             2    0       0.033703      1.735217      1.758693    -0.183603    0.408709    0.450116
             3    0       1.809838     -0.011305      1.804515     0.117191    0.069526    0.063922
             4    0       1.774573      1.836155      0.027383     0.242901   -0.333590   -0.404131
             5    0       0.002280      0.040084      3.626787    -0.036458   -0.359006   -0.068286
             6    0      -0.030732      1.817964      5.380971     0.174437   -0.177636    0.335823
             7    0       1.836343     -0.001241      5.408817    -0.231358    0.283355    0.268427
             8    0       1.780853      1.848668      3.604462     0.250267   -0.297541    0.023209
             9    0      -0.015299      3.597638      0.019211     0.098656    0.197899   -0.027149
            10    0       0.013123      5.429580      1.820631    -0.057914   -0.177257    0.035302
            11    0       1.881313      3.595569      1.786782    -0.605318    0.136663    0.163268
            12    0       1.776107      5.436939      0.040400     0.295403   -0.195216   -0.231593
            13    0      -0.003822      3.579971      3.580145     0.142930    0.185691   -0.012712
            14    0       0.023154      5.441518      5.434191    -0.189509   -0.183641   -0.224373
            15    0       1.781014      3.618525      5.419306     0.044932    0.060125    0.042625
            16    0       1.812503      5.445924      3.617936    -0.216946   -0.316738   -0.074378
            17    0       3.634001      0.002460      0.010337    -0.286580   -0.001455   -0.070086
            18    0       3.632582      1.752897      1.793520    -0.143993    0.321736    0.042508
            19    0       5.398283     -0.023343      1.795369     0.166943   -0.125877    0.162542
            20    0       5.468462      1.774145      0.034564    -0.315814    0.220415   -0.246949
            21    0       3.550056     -0.011892      3.615927     0.491502    0.135037    0.004182
            22    0       3.631054      1.830593      5.443447    -0.074207   -0.071817   -0.125623
            23    0       5.402519     -0.016649      5.445387     0.078510    0.057223   -0.320313
            24    0       5.407833      1.759278      3.569379    -0.119663    0.216505    0.197788
            25    0       3.577488      3.627639      0.004971     0.380236   -0.161326   -0.116317
            26    0       3.634652      5.399836      1.810552    -0.175172    0.154330   -0.099743
            27    0       5.437299      3.598467      1.821070    -0.177394   -0.186277   -0.248356
            28    0       5.391499      5.401692     -0.013514     0.230597   -0.091540    0.151185
            29    0       3.567380      3.627172      3.593466     0.332300   -0.217578    0.247836
            30    0       3.610389      5.431935      5.430948    -0.038399   -0.235812   -0.108719
            31    0       5.438695      3.606470      5.399735    -0.185690    0.030415    0.023930
            32    0       5.412248      5.354932      3.558626     0.066593    0.484707    0.504752
 Energy
          0.080111725575
 PlusStress:  xx          yy          zz          yz          xz          xy
        -4.06856    -4.14223    -4.01370     0.17299    -0.00186    -0.11211
END_CFG

BEGIN_CFG
 Size
    32
 Supercell
         7.220000      0.000000      0.000000
         0.000000      7.220000      0.000000
         0.000000      0.000000      7.220000
 AtomData:  id type       cartes_x      cartes_y      cartes_z           fx          fy          fz
             1    0       0.016029     -0.055095      0.038125    -0.137391    0.239350   -0.493818
             2    0       0.049697      1.702272      1.737646    -0.293250    0.596569    0.710890
             3    0       1.812808     -0.016626      1.804577     0.178176    0.100914    0.092987
             4    0       1.760496      1.850138      0.039165     0.383215   -0.475602   -0.609500
             5    0       0.003227      0.058418      3.634860    -0.026127   -0.525343   -0.106068
             6    0      -0.045261      1.823584      5.365560     0.245791   -0.236851    0.484196
             7    0       1.850920     -0.000503      5.406996    -0.348388    0.397816    0.400097
             8    0       1.769972      1.869095      3.601806     0.365645   -0.450574    0.031566
             9    0      -0.022477      3.592397      0.028691     0.142464    0.291160   -0.046673
            10    0       0.019418      5.436023      1.828604    -0.096098   -0.253372    0.064322
            11    0       1.916594      3.589008      1.778449    -0.894876    0.191950    0.241394
            12    0       1.763053      5.446996      0.059501     0.451546   -0.311815   -0.346567
            13    0      -0.005041      3.565842      3.565154     0.189134    0.269754   -0.009837
            14    0       0.033822      5.453896      5.442706    -0.267288   -0.259977   -0.312519
            15    0       1.769236      3.623079      5.421664     0.065948    0.077911    0.059033
            16    0       1.815228      5.459886      3.621546    -0.323422   -0.472584   -0.100973
            17    0       3.644635      0.003692      0.015179    -0.412689   -0.016222   -0.114257
            18    0       3.643200      1.728370      1.787983    -0.228825    0.482399    0.060821
            19    0       5.390706     -0.035610      1.791332     0.262015   -0.186260    0.228813
            20    0       5.493689      1.759785      0.050677    -0.463253    0.295954   -0.372001
            21    0       3.522413     -0.017214      3.618926     0.734366    0.222994   -0.015558
            22    0       3.641225      1.843050      5.457068    -0.104031   -0.109945   -0.179032
            23    0       5.396643     -0.024719      5.459040     0.126064    0.105885   -0.447316
            24    0       5.403671      1.737449      3.550006    -0.160613    0.315687    0.297639
            25    0       3.563049      3.635673      0.006924     0.548417   -0.214206   -0.202577
            26    0       3.646151      5.392985      1.812859    -0.266094    0.227522   -0.150525
            27    0       5.447610      3.591822      1.827936    -0.269394   -0.281304   -0.380022
            28    0       5.380845      5.394602     -0.019549     0.338050   -0.131325    0.217725
            29    0       3.547649      3.634711      3.586363     0.490902   -0.299351    0.385271
            30    0       3.610406      5.439280      5.438408    -0.064971   -0.342027   -0.163243
            31    0       5.449652      3.604836      5.392216    -0.259878    0.062422    0.035273
            32    0       5.411191      5.327220      3.535341     0.094856    0.688470    0.740456
 Energy
          0.377912811228
 PlusStress:  xx          yy          zz          yz          xz          xy
        -2.88318    -3.05459    -2.75772     0.36960    -0.00657    -0.22648
END_CFG

BEGIN_CFG
 Size
    32
 Supercell
         7.220000      0.000000      0.000000
         0.000000      7.220000      0.000000
         0.000000      0.000000      7.220000
 AtomData:  id type       cartes_x      cartes_y      cartes_z           fx          fy          fz
             1    0       0.020623     -0.072007      0.047884    -0.208788    0.300447   -0.629234
             2    0       0.064579      1.671592      1.719298    -0.404540    0.765663    0.972280
             3    0       1.816455     -0.021564      1.804991     0.232785    0.128092    0.116984
             4    0       1.747874      1.862317      0.048634     0.522912   -0.591833   -0.800258
             5    0       0.004075      0.074757      3.642531    -0.002497   -0.675141   -0.143498
             6    0      -0.058856      1.828305      5.351986     0.306791   -0.277277    0.612551
             7    0       1.864174      0.001744      5.406694    -0.459091    0.487077    0.518344
             8    0       1.760479      1.887812      3.599270     0.470979   -0.599995    0.041543
             9    0      -0.029115      3.588260      0.037995     0.183450    0.372575   -0.069373
            10    0       0.025347      5.441503      1.836821    -0.136071   -0.317818    0.093073
            11    0       1.948479      3.583175      1.771031    -1.161237    0.232946    0.311932
            12    0       1.751714      5.455870      0.077288     0.603036   -0.433294   -0.456715
            13    0      -0.005542      3.552738      3.550125     0.216212    0.344954    0.002432
            14    0       0.043476      5.465287      5.450035    -0.332529   -0.325466   -0.385287
            15    0       1.757707      3.627929      5.424246     0.086152    0.085462    0.070572
            16    0       1.816724      5.472053      3.624773    -0.418479   -0.616157   -0.117570
            17    0       3.653703      0.004863      0.019588    -0.517858   -0.039060   -0.162650
            18    0       3.652950      1.705674      1.782677    -0.315698    0.636220    0.075761
            19    0       5.384124     -0.048583      1.788163     0.357257   -0.234725    0.279338
            20    0       5.517156      1.746549      0.065379    -0.601846    0.349973   -0.490393
            21    0       3.497559     -0.021690      3.621866     0.962392    0.312066   -0.042259
            22    0       3.651000      1.855090      5.470010    -0.129556   -0.149668   -0.226758
            23    0       5.391246     -0.032387      5.470995     0.172692    0.158334   -0.550930
            24    0       5.398900      1.716819      3.531762    -0.185535    0.407417    0.396295
            25    0       3.550692      3.642894      0.008109     0.696751   -0.252932   -0.297513
            26    0       3.656640      5.386997      1.814594    -0.354170    0.289045   -0.194609
            27    0       5.456898      3.584109      1.833359    -0.360795   -0.365989   -0.502960
            28    0       5.371474      5.387015     -0.024758     0.434413   -0.160926    0.274004
            29    0       3.529782      3.641113      3.580722     0.638510   -0.359615    0.520289
            30    0       3.610177      5.445326      5.445248    -0.094927   -0.432081   -0.215482
            31    0       5.459622      3.603439      5.384832    -0.319038    0.100065    0.046463
            32    0       5.410494      5.302122      3.514867     0.118321    0.861641    0.953628
 Energy
          0.740204866837
 PlusStress:  xx          yy          zz          yz          xz          xy
        -1.46657    -1.76609    -1.24747     0.60494    -0.01066    -0.35488
END_CFG

BEGIN_CFG
 Size
    32
 Supercell
         7.220000      0.000000      0.000000
         0.000000      7.220000      0.000000
         0.000000      0.000000      7.220000
 AtomData:  id type       cartes_x      cartes_y      cartes_z           fx          fy          fz
             1    0       0.024425     -0.087779      0.055255    -0.280404    0.355440   -0.734312
             2    0       0.077924      1.643817      1.704640    -0.505862    0.909218    1.206302
             3    0       1.820985     -0.026016      1.805850     0.273518    0.149446    0.132641
             4    0       1.737237      1.872249      0.055064     0.646475   -0.677521   -0.958762
             5    0       0.004913      0.088534      3.649656     0.028266   -0.802560   -0.177302
             6    0      -0.071287      1.831974      5.340738     0.358273   -0.300455    0.714987
             7    0       1.875686      0.005841      5.408360    -0.555847    0.546502    0.611602
             8    0       1.752773      1.904251      3.596892     0.563093   -0.739586    0.056235
             9    0      -0.035056      3.585538      0.047034     0.223114    0.435787   -0.094116
            10    0       0.030760      5.445778      1.845392    -0.173200   -0.367781    0.113391
            11    0       1.975955      3.578226      1.764798    -1.389614    0.257030    0.368711
            12    0       1.742663      5.463099      0.093340     0.738630   -0.549553   -0.557288
            13    0      -0.005222      3.540942      3.535105     0.224502    0.407942    0.025127
            14    0       0.051867      5.475443      5.455902    -0.385136   -0.379742   -0.442869
            15    0       1.746506      3.633104      5.427096     0.105709    0.081904    0.076061
            16    0       1.816633      5.481882      3.627553    -0.491395   -0.736105   -0.122482
            17    0       3.660805      0.005886      0.023378    -0.595223   -0.068229   -0.212117
            18    0       3.661501      1.685392      1.777659    -0.397712    0.776770    0.085833
            19    0       5.378899     -0.062448      1.786054     0.444755   -0.262422    0.310726
            20    0       5.538340      1.734642      0.078219    -0.727305    0.383682   -0.594665
            21    0       3.476357     -0.024981      3.624646     1.160515    0.389341   -0.066863
            22    0       3.660283      1.866561      5.482091    -0.151161   -0.191110   -0.269872
            23    0       5.386505     -0.039454      5.480860     0.212947    0.207138   -0.630492
            24    0       5.393425      1.697736      3.515023    -0.192430    0.489557    0.491956
            25    0       3.540980      3.649156      0.008164     0.817820   -0.281268   -0.386928
            26    0       3.665784      5.382107      1.815590    -0.434648    0.331675   -0.225687
            27    0       5.464817      3.575007      1.836874    -0.449123   -0.428231   -0.602866
            28    0       5.363752      5.378816     -0.028927     0.515295   -0.175775    0.316720
            29    0       3.514338      3.646151      3.577056     0.768940   -0.397476    0.640672
            30    0       3.609587      5.449733      5.451269    -0.126092   -0.499828   -0.263705
            31    0       5.468381      3.602423      5.377624    -0.361870    0.138356    0.057736
            32    0       5.410247      5.280295      3.498012     0.135171    0.997854    1.131626
 Energy
          1.116821743139
 PlusStress:  xx          yy          zz          yz          xz          xy
        -0.02551    -0.46104     0.30024     0.84345    -0.00630    -0.48137
END_CFG

BEGIN_CFG
 Size
    32
 Supercell
         7.220000      0.000000      0.000000
         0.000000      7.220000      0.000000
         0.000000      0.000000      7.220000
 AtomData:  id type       cartes_x      cartes_y      cartes_z           fx          fy          fz
             1    0       0.027162     -0.102201      0.059838    -0.341081    0.406037   -0.797878
             2    0       0.089350      1.619495      1.694561    -0.584733    1.021373    1.381798
             3    0       1.826554     -0.029900      1.807212     0.292884    0.163397    0.136694
             4    0       1.729054      1.879609      0.057856     0.736777   -0.730672   -1.066144
             5    0       0.005859      0.099265      3.656109     0.059671   -0.902101   -0.203684
             6    0      -0.082358      1.834503      5.332204     0.401103   -0.308388    0.785898
             7    0       1.885088      0.012012      5.412347    -0.630661    0.572356    0.667681
             8    0       1.747205      1.917883      3.594728     0.638191   -0.862169    0.078187
             9    0      -0.040150      3.584470      0.055717     0.263038    0.475052   -0.119645
            10    0       0.035515      5.448656      1.854393    -0.202598   -0.400604    0.116567
            11    0       1.998157      3.574253      1.759964    -1.564033    0.263670    0.405047
            12    0       1.736416      5.468242      0.107278     0.845296   -0.648043   -0.642812
            13    0      -0.004050      3.530695      3.520181     0.215833    0.454681    0.058301
            14    0       0.058796      5.484157      5.460087    -0.425443   -0.422983   -0.485400
            15    0       1.735706      3.638589      5.430235     0.124843    0.066859    0.074516
            16    0       1.814676      5.488916      3.629869    -0.530541   -0.820271   -0.115061
            17    0       3.665647      0.006649      0.026364    -0.639049   -0.101338   -0.258277
            18    0       3.668543      1.668060      1.772967    -0.467416    0.896878    0.089410
            19    0       5.375361     -0.077309      1.785125     0.515913   -0.261048    0.321018
            20    0       5.556762      1.724191      0.088802    -0.833302    0.398354   -0.677227
            21    0       3.459560     -0.026795      3.627172     1.311703    0.441206   -0.079459
            22    0       3.668993      1.877307      5.493148    -0.169119   -0.234431   -0.309664
            23    0       5.382571     -0.045734      5.488331     0.241760    0.245756   -0.685545
            24    0       5.387219      1.680510      3.500151    -0.180073    0.559476    0.582169
            25    0       3.534371      3.654349      0.006751     0.902587   -0.302921   -0.453513
            26    0       3.673279      5.378476      1.815729    -0.502488    0.349229   -0.238041
            27    0       5.471031      3.564279      1.838100    -0.531403   -0.455613   -0.664909
            28    0       5.357987      5.369950     -0.031894     0.576805   -0.172101    0.342997
            29    0       3.501813      3.649680      3.575822     0.875200   -0.413716    0.732973
            30    0       3.608519      5.452242      5.456290    -0.155652   -0.540099   -0.306168
            31    0       5.475766      3.601931      5.370635    -0.387466    0.172158    0.069455
            32    0       5.410512      5.262255      3.485453     0.143455    1.090019    1.260716
 Energy
          1.453668578505
 PlusStress:  xx          yy          zz          yz          xz          xy
         1.23178     0.67971     1.66226     1.04778     0.01593    -0.59421
END_CFG

BEGIN_CFG
 Size
    32
 Supercell
         7.220000      0.000000      0.000000
         0.000000      7.220000      0.000000
         0.000000      0.000000      7.220000
 AtomData:  id type       cartes_x      cartes_y      cartes_z           fx          fy          fz
             1    0       0.028605     -0.115082      0.061392    -0.379769    0.452666   -0.811020
             2    0       0.098556      1.599049      1.689728    -0.631255    1.098693    1.472013
             3    0       1.833234     -0.033165      1.809093     0.284911    0.168666    0.126899
             4    0       1.723667      1.884195      0.056600     0.779527   -0.751874   -1.106570
             5    0       0.007032      0.106571      3.661788     0.085902   -0.969219   -0.219065
             6    0      -0.091907      1.835860      5.326653     0.435937   -0.303435    0.821023
             7    0       1.892096      0.020356      5.418869    -0.677153    0.562386    0.676352
             8    0       1.744060      1.928243      3.592860     0.692398   -0.960283    0.108828
             9    0      -0.044245      3.585205      0.063946     0.304213    0.486096   -0.144741
            10    0       0.039501      5.450013      1.863836    -0.220125   -0.414453    0.095052
            11    0       2.014422      3.571280      1.756668    -1.670672    0.254409    0.415921
            12    0       1.733378      5.470925      0.118775     0.910640   -0.716091   -0.708247
            13    0      -0.002059      3.522174      3.505478     0.193254    0.481041    0.101297
            14    0       0.064111      5.491266      5.462430    -0.454078   -0.456258   -0.513296
            15    0       1.725380      3.644328      5.433656     0.143867    0.040404    0.065332
            16    0       1.810705      5.492837      3.631747    -0.526129   -0.858928   -0.096226
            17    0       3.668064      0.007028      0.028370    -0.645619   -0.135439   -0.296114
            18    0       3.673810      1.654132      1.768613    -0.518148    0.989555    0.085151
            19    0       5.373782     -0.093160      1.785414     0.562932   -0.224565    0.310198
            20    0       5.572021      1.715252      0.096815    -0.913130    0.395817   -0.731844
            21    0       3.447743     -0.026933      3.629396     1.401109    0.456397   -0.071908
            22    0       3.677061      1.887164      5.503029    -0.183571   -0.279769   -0.347407
            23    0       5.379556     -0.051082      5.493199     0.255225    0.269300   -0.716150
            24    0       5.380329      1.665409      3.487489    -0.148411    0.614722    0.663764
            25    0       3.531189      3.658393      0.003615     0.942920   -0.321133   -0.480844
            26    0       3.678866      5.376170      1.814965    -0.552974    0.337930   -0.227779
            27    0       5.475228      3.551822      1.836802    -0.603984   -0.438819   -0.677493
            28    0       5.354410      5.360430     -0.033559     0.615948   -0.147578    0.350991
            29    0       3.492611      3.651638      3.577371     0.950488   -0.410835    0.784908
            30    0       3.606860      5.452701      5.460149    -0.180450   -0.549517   -0.341105
            31    0       5.481680      3.602093      5.363909    -0.395326    0.196616    0.082184
            32    0       5.411322      5.248353      3.477679     0.141523    1.133499    1.329898
 Energy
          1.703412703737
 PlusStress:  xx          yy          zz          yz          xz          xy
         2.13316     1.50902     2.64927     1.18474     0.06207    -0.68364
END_CFG

BEGIN_CFG
 Size
    32
 Supercell
         7.220000      0.000000      0.000000
         0.000000      7.220000      0.000000
         0.000000      0.000000      7.220000
 AtomData:  id type       cartes_x      cartes_y      cartes_z           fx          fy          fz
             1    0       0.028606     -0.126245      0.059868    -0.388127    0.493998   -0.769978
             2    0       0.105366      1.582773      1.690481    -0.641394    1.139872    1.461028
             3    0       1.840996     -0.035789      1.811456     0.246614    0.164640    0.103032