BEGIN_CFG
 Size
    4
 Supercell
         3.610000      0.000000      0.000000
         0.000000      3.610000      0.000000
         0.000000      0.000000      3.610000
 AtomData:  id type       cartes_x      cartes_y      cartes_z           fx          fy          fz
             1    0       0.000000      0.000000      0.000000    -0.000000   -0.000000    0.000000
             2    0       0.000000      1.805000      1.805000    -0.000000    0.000000    0.000000
             3    0       1.805000      0.000000      1.805000     0.000000    0.000000   -0.000000
             4    0       1.805000      1.805000      0.000000     0.000000    0.000000    0.000000
 Energy
         -0.023945527705
 PlusStress:  xx          yy          zz          yz          xz          xy
        -0.63923    -0.63923    -0.63923     0.00000     0.00000    -0.00000
END_CFG

BEGIN_CFG
 Size
    4
 Supercell
         3.610000      0.000000      0.000000
         0.000000      3.610000      0.000000
         0.000000      0.000000      3.610000
 AtomData:  id type       cartes_x      cartes_y      cartes_z           fx          fy          fz
             1    0       0.005511     -0.018809      0.013573    -0.101149    0.069205   -0.205200
             2    0       0.017011      1.769714      1.781449    -0.187108    0.169930    0.294249
             3    0       1.807312     -0.005720      1.804696     0.077453   -0.028067    0.120461
             4    0       1.789572      1.820905      0.014067     0.210804   -0.211068   -0.209511
 Energy
         -0.008972060185
 PlusStress:  xx          yy          zz          yz          xz          xy
        -0.57310    -0.58088    -0.59139     0.01658    -0.02885    -0.02386
END_CFG

BEGIN_CFG
 Size
    4
 Supercell
         3.610000      0.000000      0.000000
         0.000000      3.610000      0.000000
         0.000000      0.000000      3.610000
 AtomData:  id type       cartes_x      cartes_y      cartes_z           fx          fy          fz
             1    0       0.010644     -0.037358      0.026376    -0.200134    0.135223   -0.400689
             2    0       0.033319      1.735069      1.759003    -0.371916    0.337232    0.580473
             3    0       1.809913     -0.011546      1.804842     0.150628   -0.056351    0.232728
             4    0       1.774936      1.836013      0.027349     0.421422   -0.416104   -0.412511
 Energy
          0.033588234018
 PlusStress:  xx          yy          zz          yz          xz          xy
        -0.38565    -0.41553    -0.45704     0.06270    -0.10976    -0.09056
END_CFG

BEGIN_CFG
 Size
    4
 Supercell
         3.610000      0.000000      0.000000
         0.000000      3.610000      0.000000
         0.000000      0.000000      3.610000
 AtomData:  id type       cartes_x      cartes_y      cartes_z           fx          fy          fz
             1    0       0.015028     -0.055396      0.037675    -0.292816    0.195192   -0.576194
             2    0       0.048229      1.701703      1.738742    -0.548168    0.498566    0.847425
             3    0       1.813076     -0.017586      1.805856     0.214342   -0.084942    0.328249
             4    0       1.761885      1.849548      0.039081     0.626641   -0.608816   -0.599480
 Energy
          0.096774053284
 PlusStress:  xx          yy          zz          yz          xz          xy
        -0.10848    -0.17131    -0.26239     0.12834    -0.22662    -0.18642
END_CFG

BEGIN_CFG
 Size
    4
 Supercell
         3.610000      0.000000      0.000000
         0.000000      3.610000      0.000000
         0.000000      0.000000      3.610000
 AtomData:  id type       cartes_x      cartes_y      cartes_z           fx          fy          fz
             1    0       0.018316     -0.072697      0.046808    -0.371917    0.246812   -0.720754
             2    0       0.061073      1.670232      1.721677    -0.703656    0.649601    1.079203
             3    0       1.817039     -0.023948      1.808098     0.262117   -0.113726    0.398135
             4    0       1.751196      1.860772      0.048557     0.813456   -0.782688   -0.756584
 Energy
          0.169636395236
 PlusStress:  xx          yy          zz          yz          xz          xy
         0.21058     0.10874    -0.04630     0.19934    -0.35569    -0.29169
END_CFG

BEGIN_CFG
 Size
    4
 Supercell
         3.610000      0.000000      0.000000
         0.000000      3.610000      0.000000
         0.000000      0.000000      3.610000
 AtomData:  id type       cartes_x      cartes_y      cartes_z           fx          fy          fz
             1    0       0.020209     -0.089064      0.053226    -0.427295    0.288516   -0.823425
             2    0       0.071261      1.641241      1.708691    -0.821638    0.785126    1.256685
             3    0       1.821982     -0.030744      1.811828     0.286671   -0.142114    0.433932
             4    0       1.743579      1.869015      0.055179     0.962263   -0.931528   -0.867191
 Energy
          0.238862400432
 PlusStress:  xx          yy          zz          yz          xz          xy
         0.51579     0.37365     0.14755     0.26040    -0.47027    -0.38438
END_CFG

BEGIN_CFG
 Size
    4
 Supercell
         3.610000      0.000000      0.000000
         0.000000      3.610000      0.000000
         0.000000      0.000000      3.610000
 AtomData:  id type       cartes_x      cartes_y      cartes_z           fx          fy          fz
             1    0       0.020499     -0.104337      0.056538    -0.447936    0.319515   -0.874694
             2    0       0.078340      1.615258      1.700466    -0.885449    0.899666    1.361880
             3    0       1.827996     -0.038080      1.817181     0.281319   -0.169030    0.428900
             4    0       1.739601      1.873697      0.058524     1.052067   -1.050152   -0.916086
 Energy
          0.291609168903
 PlusStress:  xx          yy          zz          yz          xz          xy
         0.75520     0.57517     0.28089     0.29803    -0.54665    -0.44425
END_CFG

BEGIN_CFG
 Size
    4
 Supercell
         3.610000      0.000000      0.000000
         0.000000      3.610000      0.000000
         0.000000      0.000000      3.610000
 AtomData:  id type       cartes_x      cartes_y      cartes_z           fx          fy          fz
             1    0       0.019109     -0.118397      0.056548    -0.425008    0.339782   -0.868259
             2    0       0.082064      1.592731      1.697409    -0.884448    0.988220    1.383428
             3    0       1.835061     -0.046060      1.824136     0.241760   -0.192919    0.379511
             4    0       1.739609      1.874354      0.058401     1.067695   -1.135082   -0.894681
 Energy
          0.318897227871
 PlusStress:  xx          yy          zz          yz          xz          xy
         0.89281     0.67959     0.33081     0.30257    -0.56938    -0.45622
END_CFG

BEGIN_CFG
 Size
    4
 Supercell
         3.610000      0.000000      0.000000
         0.000000      3.610000      0.000000
         0.000000      0.000000      3.610000
 AtomData:  id type       cartes_x      cartes_y      cartes_z           fx          fy          fz
             1    0       0.016125     -0.131167      0.053277    -0.354930    0.349855   -0.802428
             2    0       0.082434      1.574007      1.699608    -0.818277    1.047108    1.320486
             3    0       1.843026     -0.054775      1.832505     0.167575   -0.212133    0.286437
             4    0       1.743664      1.870652      0.054888     1.005632   -1.184830   -0.804495
 Energy
          0.318135668506
 PlusStress:  xx          yy          zz          yz          xz          xy
         0.91660     0.67652     0.29545     0.26954    -0.53405    -0.41304
END_CFG

BEGIN_CFG
 Size
    4
 Supercell
         3.610000      0.000000      0.000000
         0.000000      3.610000      0.000000
         0.000000      0.000000      3.610000
 AtomData:  id type       cartes_x      cartes_y      cartes_z           fx          fy          fz
             1    0       0.011814     -0.142610      0.046976    -0.241045    0.350432   -0.680741
             2    0       0.079699      1.559317      1.706827    -0.697116    1.074711    1.182965
             3    0       1.851610     -0.064297      1.841935     0.062746   -0.225375    0.154706
             4    0       1.751533      1.862396      0.048325     0.875416   -1.199768   -0.656930
 Energy
          0.293476787037
 PlusStress:  xx          yy          zz          yz          xz          xy
         0.83906     0.58068     0.19311     0.20045    -0.44664    -0.31710
END_CFG

BEGIN_CFG
 Size
    4
 Supercell
         3.610000      0.000000      0.000000
         0.000000      3.610000      0.000000
         0.000000      0.000000      3.610000
 AtomData:  id type       cartes_x      cartes_y      cartes_z           fx          fy          fz
             1    0       0.006606     -0.152723      0.038105    -0.093220    0.341819   -0.511500
             2    0       0.074315      1.548765      1.718545    -0.538155    1.071727    0.988131
             3    0       1.860417     -0.074675      1.851928    -0.064918   -0.232092   -0.007009
             4    0       1.762724      1.849530      0.039270     0.696293   -1.181455   -0.469622
 Energy
          0.253811763643
 PlusStress:  xx          yy          zz          yz          xz          xy
         0.69035     0.42541     0.05529     0.10332    -0.32066    -0.18076
END_CFG

BEGIN_CFG
 Size
    4
 Supercell
         3.610000      0.000000      0.000000
         0.000000      3.610000      0.000000
         0.000000      0.000000      3.610000
 AtomData:  id type       cartes_x      cartes_y      cartes_z           fx          fy          fz
             1    0       0.001058     -0.161542      0.027305     0.074139    0.323686   -0.306749
             2    0       0.066886      1.542334      1.734021    -0.360424    1.040499    0.755654
             3    0       1.868966     -0.085935      1.861873    -0.204933   -0.232586   -0.187399
             4    0       1.776558      1.832128      0.028432     0.491218   -1.131600   -0.261506
 Energy
          0.209492388967
 PlusStress:  xx          yy          zz          yz          xz          xy
         0.50769     0.25111    -0.08315    -0.00786    -0.17395    -0.02491
END_CFG

BEGIN_CFG
 Size
    4
 Supercell
         3.610000      0.000000      0.000000
         0.000000      3.610000      0.000000
         0.000000      0.000000      3.610000
 AtomData:  id type       cartes_x      cartes_y      cartes_z           fx          fy          fz
             1    0      -0.004200     -0.169135      0.015352     0.244741    0.295178   -0.081068
             2    0       0.058085      1.539898      1.752371    -0.180233    0.983776    0.503353
             3    0       1.876730     -0.098078      1.871093    -0.345423   -0.227845   -0.373472
             4    0       1.792259      1.810390      0.016601     0.280916   -1.051109   -0.048812
 Energy
          0.169267542941
 PlusStress:  xx          yy          zz          yz          xz          xy
         0.32524     0.09333    -0.19327    -0.11503    -0.02621     0.12470
END_CFG

BEGIN_CFG
 Size
    4
 Supercell
         3.610000      0.000000      0.000000
         0.000000      3.610000      0.000000
         0.000000      0.000000      3.610000
 AtomData:  id type       cartes_x      cartes_y      cartes_z           fx          fy          fz
             1    0      -0.008528     -0.175612      0.003095     0.402793    0.255592    0.149517
             2    0       0.048592      1.541228      1.772638    -0.008807    0.903510    0.245033
             3    0       1.883185     -0.111084      1.878889    -0.474171   -0.219162   -0.551275
             4    0       1.809032      1.784634      0.004580     0.080185   -0.939940    0.156724
 Energy
          0.138509503198
 PlusStress:  xx          yy          zz          yz          xz          xy
         0.16757    -0.02515    -0.25809    -0.19959     0.10261     0.24280
END_CFG

BEGIN_CFG
 Size
    4
 Supercell
         3.610000      0.000000      0.000000
         0.000000      3.610000      0.000000
         0.000000      0.000000      3.610000
 AtomData:  id type       cartes_x      cartes_y      cartes_z           fx          fy          fz
             1    0      -0.011334     -0.181122     -0.008598     0.534649    0.205198    0.368473
             2    0       0.039056      1.546006      1.793843     0.147644    0.800401   -0.009256
             3    0       1.887846     -0.124922      1.884595    -0.579376   -0.207530   -0.706597
             4    0       1.826118      1.755293     -0.006854    -0.102918   -0.798069    0.347381
 Energy
          0.118903584938
 PlusStress:  xx          yy          zz          yz          xz          xy
         0.04736    -0.09693    -0.27453    -0.24645     0.19404     0.30993
END_CFG

BEGIN_CFG
 Size
    4
 Supercell
         3.610000      0.000000      0.000000
         0.000000      3.610000      0.000000
         0.000000      0.000000      3.610000
 AtomData:  id type       cartes_x      cartes_y      cartes_z           fx          fy          fz
             1    0      -0.012125     -0.185856     -0.018904     0.630033    0.145891    0.560072
             2    0       0.030069      1.553832      1.815025     0.286346    0.674521   -0.251575
             3    0       1.890323     -0.139546      1.887632    -0.650837   -0.193179   -0.826136
             4    0       1.842825      1.722915     -0.016983    -0.265542   -0.627233    0.517640
 Energy
          0.109210862417
 PlusStress:  xx          yy          zz          yz          xz          xy
        -0.03344    -0.12764    -0.25181    -0.24768     0.23389     0.31687
END_CFG

BEGIN_CFG
 Size
    4
 Supercell
         3.610000      0.000000      0.000000
         0.000000      3.610000      0.000000
         0.000000      0.000000      3.610000
 AtomData:  id type       cartes_x      cartes_y      cartes_z           fx          fy          fz
             1    0      -0.010542     -0.190037     -0.027103     0.682779    0.081155    0.711020
             2    0       0.022154      1.564218      1.835269     0.405498    0.526627   -0.473947
             3    0       1.890347     -0.154902      1.887553    -0.681211   -0.175290   -0.898976
             4    0       1.858540      1.688155     -0.025164    -0.407066   -0.432492    0.661903
 Energy
          0.106475336463
 PlusStress:  xx          yy          zz          yz          xz          xy
        -0.08073    -0.13088    -0.20737    -0.20464     0.21597     0.26643
END_CFG

BEGIN_CFG
 Size
    4
 Supercell
         3.610000      0.000000      0.000000
         0.000000      3.610000      0.000000
         0.000000      0.000000      3.610000
 AtomData:  id type       cartes_x      cartes_y      cartes_z           fx          fy          fz
             1    0      -0.006390     -0.193909     -0.032628     0.691304    0.015446    0.812214
             2    0       0.015760      1.576599      1.853736     0.502109    0.359259   -0.666944
             3    0       1.887808     -0.170922      1.884087    -0.667399   -0.152144   -0.918203
             4    0       1.872727      1.651755     -0.030854    -0.526013   -0.222561    0.772933
 Energy
          0.107231584849
 PlusStress:  xx          yy          zz          yz          xz          xy
        -0.10444    -0.12245    -0.16155    -0.12784     0.14529     0.17266
END_CFG

BEGIN_CFG
 Size
    4
 Supercell
         3.610000      0.000000      0.000000
         0.000000      3.610000      0.000000
         0.000000      0.000000      3.610000
 AtomData:  id type       cartes_x      cartes_y      cartes_z           fx          fy          fz
             1    0       0.000363     -0.197721     -0.035099     0.658126   -0.046864    0.859719
             2    0       0.011252      1.590339      1.869697     0.570990    0.177150   -0.819705
             3    0       1.882757     -0.187516      1.877164    -0.610915   -0.121803   -0.881754
             4    0       1.884938      1.614510     -0.033638    -0.618202   -0.008483    0.841739
 Energy
          0.108469221229
 PlusStress:  xx          yy          zz          yz          xz          xy
        -0.11465    -0.11537    -0.13222    -0.03450     0.03875     0.05741
END_CFG

BEGIN_CFG
 Size
    4
 Supercell
         3.610000      0.000000      0.000000
         0.000000      3.610000      0.000000
         0.000000      0.000000      3.610000
 AtomData:  id type       cartes_x      cartes_y      cartes_z           fx          fy          fz
             1    0       0.009592     -0.201707     -0.034336     0.588572   -0.102506    0.854481
             2    0       0.008891      1.604748      1.882577     0.605569   -0.013327   -0.921610
             3    0       1.875410     -0.204569      1.866925    -0.517126   -0.082994   -0.792120
             4    0       1.894824      1.577231     -0.033256    -0.677014    0.198827    0.859250
 Energy
          0.108374049327
 PlusStress:  xx          yy          zz          yz          xz          xy
        -0.11793    -0.11647    -0.13010     0.05536    -0.07812    -0.05428
END_CFG

BEGIN_CFG
 Size
    4
 Supercell
         3.610000      0.000000      0.000000
         0.000000      3.610000      0.000000
         0.000000      0.000000      3.610000
 AtomData:  id type       cartes_x      cartes_y      cartes_z           fx          fy          fz
             1    0       0.021034     -0.206079     -0.030359     0.488766   -0.149852    0.800700
             2    0       0.008806      1.619104      1.891988     0.600162   -0.205263   -0.964981
             3    0       1.866121     -0.221934      1.853708    -0.393232   -0.035962   -0.654971
             4    0       1.902162      1.540702     -0.029643    -0.695696    0.391077    0.819252
 Energy
          0.106858060127
 PlusStress:  xx          yy          zz          yz          xz          xy
        -0.11447    -0.12489    -0.15567     0.12289    -0.17762    -0.13873
END_CFG

BEGIN_CFG
 Size
    4
 Supercell
         3.610000      0.000000      0.000000
         0.000000      3.610000      0.000000
         0.000000      0.000000      3.610000
 AtomData:  id type       cartes_x      cartes_y      cartes_z           fx          fy          fz
             1    0       0.034313     -0.211017     -0.023371     0.363742   -0.188872    0.703772
             2    0       0.010979      1.632678      1.897766     0.552513   -0.392254   -0.947581
             3    0       1.855356     -0.239433      1.838032    -0.245973    0.017222   -0.477377
             4    0       1.906881      1.505653     -0.022948    -0.670282    0.563904    0.721186
 Energy
          0.105789353918
 PlusStress:  xx          yy          zz          yz          xz          xy
        -0.09707    -0.13225    -0.19837     0.15336    -0.23697    -0.17709
END_CFG

BEGIN_CFG
 Size
    4
 Supercell
         3.610000      0.000000      0.000000
         0.000000      3.610000      0.000000
         0.000000      0.000000      3.610000
 AtomData:  id type       cartes_x      cartes_y      cartes_z           fx          fy          fz
             1    0       0.048957     -0.216667     -0.013736     0.216560   -0.220560    0.568610
             2    0       0.015233      1.644761      1.899972     0.465327   -0.569049   -0.873490
             3    0       1.843672     -0.256863      1.820568    -0.080252    0.073002   -0.266390
             4    0       1.909073      1.472742     -0.013539    -0.601634    0.716606    0.571271
 Energy
          0.108685029451
 PlusStress:  xx          yy          zz          yz          xz          xy
        -0.05298    -0.12474    -0.23897     0.13775    -0.24302    -0.15763
END_CFG

BEGIN_CFG
 Size
    4
 Supercell
         3.610000      0.000000      0.000000
         0.000000      3.610000      0.000000
         0.000000      0.000000      3.610000
 AtomData:  id type       cartes_x      cartes_y      cartes_z           fx          fy          fz
             1    0       0.064411     -0.223152     -0.001962     0.048844   -0.246032    0.399284
             2    0       0.021241      1.654676      1.898880     0.346095   -0.731671   -0.752162
             3    0       1.831693     -0.274016      1.802110     0.100836    0.127224   -0.028636
             4    0       1.908996      1.442553     -0.001980    -0.495775    0.850479    0.381513
 Energy
          0.119740959411
 PlusStress:  xx          yy          zz          yz          xz          xy
         0.03143    -0.08696    -0.25491     0.07341    -0.19332    -0.07736
END_CFG

BEGIN_CFG
 Size
    4
 Supercell
         3.610000      0.000000      0.000000
         0.000000      3.610000      0.000000
         0.000000      0.000000      3.610000
 AtomData:  id type       cartes_x      cartes_y      cartes_z           fx          fy          fz
             1    0       0.080042     -0.230566      0.011313    -0.137291   -0.265774    0.200148
             2    0       0.028560      1.661800      1.894944     0.205648   -0.877079   -0.596264
             3    0       1.820102     -0.290685      1.783557     0.294346    0.176111    0.228785
             4    0       1.907043      1.415603      0.011020    -0.362704    0.966742    0.167331
 Energy
          0.142305442409
 PlusStress:  xx          yy          zz          yz          xz          xy
         0.16435    -0.00722    -0.22746    -0.03533    -0.09438     0.05691
END_CFG

BEGIN_CFG
 Size
    4
 Supercell
         3.610000      0.000000      0.000000
         0.000000      3.610000      0.000000
         0.000000      0.000000      3.610000
 AtomData:  id type       cartes_x      cartes_y      cartes_z           fx          fy          fz
             1    0       0.095149     -0.238986      0.025340    -0.336473   -0.279161   -0.022074
             2    0       0.036663      1.665571      1.888744     0.056671   -1.002481   -0.419525
             3    0       1.809629     -0.306687      1.765880     0.494766    0.217155    0.496451
             4    0       1.903712      1.392342      0.024655    -0.214964    1.064487   -0.054852
 Energy
          0.177172587631
 PlusStress:  xx          yy          zz          yz          xz          xy
         0.34242     0.11668    -0.14879    -0.17675     0.04072     0.22824
END_CFG

BEGIN_CFG
 Size
    4
 Supercell
         3.610000      0.000000      0.000000
         0.000000      3.610000      0.000000
         0.000000      0.000000      3.610000
 AtomData:  id type       cartes_x      cartes_y      cartes_z           fx          fy          fz
             1    0       0.108982     -0.248461      0.039282    -0.537520   -0.284622   -0.255831
             2    0       0.044991      1.665505      1.880942    -0.087531   -1.104409   -0.235436
             3    0       1.801030     -0.321865      1.750091     0.691354    0.249534    0.760505
             4    0       1.899557      1.373151      0.038088    -0.066303    1.139496   -0.269238
 Energy
          0.221214288555
 PlusStress:  xx          yy          zz          yz          xz          xy
         0.54700     0.27307    -0.02676    -0.33206     0.19406     0.41109
END_CFG

BEGIN_CFG
 Size
    4
 Supercell
         3.610000      0.000000      0.000000
         0.000000      3.610000      0.000000
         0.000000      0.000000      3.610000
 AtomData:  id type       cartes_x      cartes_y      cartes_z           fx          fy          fz
             1    0       0.120780     -0.259014      0.052257    -0.722442   -0.280295   -0.483427
             2    0       0.053003      1.661203      1.872230    -0.213927   -1.178074   -0.056708
             3    0       1.795048     -0.336094      1.737190     0.866865    0.274057    1.001631
             4    0       1.895135      1.358325      0.050510     0.069504    1.184312   -0.461496
 Energy
          0.266960473554
 PlusStress:  xx          yy          zz          yz          xz          xy
         0.74435     0.43562     0.11435    -0.47731     0.34386     0.57518
END_CFG

BEGIN_CFG
 Size
    4
 Supercell
         3.610000      0.000000      0.000000
         0.000000      3.610000      0.000000
         0.000000      0.000000      3.610000
 AtomData:  id type       cartes_x      cartes_y      cartes_z           fx          fy          fz
             1    0       0.129845     -0.270631      0.063405    -0.868507   -0.265047   -0.682242
             2    0       0.060222      1.652380      1.863280    -0.310819   -1.217652    0.105001
             3    0       1.792349     -0.349281      1.728092     0.999223    0.292599    1.196571
             4    0       1.890956      1.348041      0.061194     0.180102    1.190100   -0.619330
 Energy
          0.303781439054
 PlusStress:  xx          yy          zz          yz          xz          xy
         0.89165     0.56778     0.23873    -0.58749     0.46651     0.69145
END_CFG

BEGIN_CFG
 Size
    4
 Supercell
         3.610000      0.000000      0.000000
         0.000000      3.610000      0.000000
         0.000000      0.000000      3.610000
 AtomData:  id type       cartes_x      cartes_y      cartes_z           fx          fy          fz
             1    0       0.135625     -0.283254      0.071975    -0.953654   -0.239370   -0.829138
             2    0       0.066281      1.638883      1.854705    -0.369405   -1.217522    0.239558
             3    0       1.793433     -0.361352      1.723537     1.066732    0.306955    1.322760
             4    0       1.887440      1.342322      0.069539     0.256328    1.149937   -0.733180
 Energy
          0.320779674221
 PlusStress:  xx          yy          zz          yz          xz          xy
         0.94794     0.63224     0.30913    -0.64226     0.54057     0.73886
END_CFG

BEGIN_CFG
 Size
    4
 Supercell
         3.610000      0.000000      0.000000
         0.000000      3.610000      0.000000
         0.000000      0.000000      3.610000
 AtomData:  id type       cartes_x      cartes_y      cartes_z           fx          fy          fz
             1    0       0.137797     -0.296788      0.077411    -0.963716   -0.205510   -0.906926
             2    0       0.070957      1.620716      1.847014    -0.385458   -1.174308    0.339278
             3    0       1.798557     -0.372253      1.724003     1.055268    0.317753    1.364744
             4    0       1.884874      1.341014      0.075114     0.293905    1.062066   -0.797095
 Energy
          0.310593206659
 PlusStress:  xx          yy          zz          yz          xz          xy
         0.88738     0.60272     0.29910    -0.63163     0.55261     0.70985
END_CFG

BEGIN_CFG
 Size
    4
 Supercell
         3.610000      0.000000      0.000000
         0.000000      3.610000      0.000000
         0.000000      0.000000      3.610000
 AtomData:  id type       cartes_x      cartes_y      cartes_z           fx          fy          fz
             1    0       0.136324     -0.311105      0.079419    -0.897870   -0.166933   -0.909748
             2    0       0.074189      1.598050      1.840586    -0.360343   -1.088395    0.399738
             3    0       1.807674     -0.381942      1.729645     0.964172    0.323690    1.319155
             4    0       1.883403      1.343776      0.077676     0.294040    0.931638   -0.809145
 Energy
          0.272388710620
 PlusStress:  xx          yy          zz          yz          xz          xy
         0.70917     0.47336     0.20253    -0.55923     0.50214     0.61238
END_CFG

BEGIN_CFG
 Size
    4
 Supercell
         3.610000      0.000000      0.000000
         0.000000      3.610000      0.000000
         0.000000      0.000000      3.610000
 AtomData:  id type       cartes_x      cartes_y      cartes_z           fx          fy          fz
             1    0       0.131459     -0.326060      0.077993    -0.768922   -0.127199   -0.844182
             2    0       0.076070      1.571224      1.835653    -0.300629   -0.964220    0.420166
             3    0       1.820438     -0.390399      1.740284     0.806964    0.321822    1.195189
             4    0       1.883030      1.350102      0.077182     0.262587    0.769597   -0.771172
 Energy
          0.212414635991
 PlusStress:  xx          yy          zz          yz          xz          xy
         0.43940     0.26175     0.03587    -0.44142     0.40268     0.46777
END_CFG

BEGIN_CFG
 Size
    4
 Supercell
         3.610000      0.000000      0.000000
         0.000000      3.610000      0.000000
         0.000000      0.000000      3.610000
 AtomData:  id type       cartes_x      cartes_y      cartes_z           fx          fy          fz
             1    0       0.123692     -0.341500      0.073383    -0.598072   -0.089028   -0.725345
             2    0       0.076826      1.540724      1.832292    -0.216364   -0.808929    0.403071
             3    0       1.836248     -0.397633      1.755444     0.606378    0.308603    1.010167
             4    0       1.883637      1.359366      0.073778     0.208058    0.589354   -0.687893
 Energy
          0.141911156783
 PlusStress:  xx          yy          zz          yz          xz          xy
         0.12402     0.00453    -0.16746    -0.30267     0.27794     0.30526
END_CFG

BEGIN_CFG
 Size
    4
 Supercell
         3.610000      0.000000      0.000000
         0.000000      3.610000      0.000000
         0.000000      0.000000      3.610000
 AtomData:  id type       cartes_x      cartes_y      cartes_z           fx          fy          fz
             1    0       0.113671     -0.357281      0.066042    -0.407122   -0.053805   -0.570565
             2    0       0.076773      1.507151      1.830439    -0.118415   -0.630321    0.353397