BEGIN_CFG
 Size
    2
 AtomData:  id type       cartes_x      cartes_y      cartes_z           fx          fy          fz
             1    0       0.388362     -0.000000     -0.000000     0.001264    0.000000    0.000000
             2    0      -0.388362      0.000000      0.000000    -0.001264    0.000000    0.000000
 Energy
        -26.740244239564
 PlusStress:  xx          yy          zz          yz          xz          xy
         0.00098     0.00000     0.00000     0.00000     0.00000     0.00000
END_CFG

BEGIN_CFG
 Size
    2
 AtomData:  id type       cartes_x      cartes_y      cartes_z           fx          fy          fz
             1    0       1.474026      5.312450     -1.627169    -0.179221   -0.420983    0.376810
             2    0       1.702476      5.849071     -2.107483     0.179221    0.420983   -0.376810
 Energy
        -26.734101747326
 PlusStress:  xx          yy          zz          yz          xz          xy
         0.04094     0.22591     0.18099    -0.20220    -0.08608     0.09617
END_CFG

BEGIN_CFG
 Size
    2
 AtomData:  id type       cartes_x      cartes_y      cartes_z           fx          fy          fz
             1    0      -1.760653      6.091512     -3.725743     0.046162   -0.153637   -0.224898
             2    0      -1.888737      6.517806     -3.101722    -0.046162    0.153637    0.224898
 Energy
        -26.738842289379
 PlusStress:  xx          yy          zz          yz          xz          xy
         0.00591     0.06549     0.14034     0.09587    -0.02881    -0.01968
END_CFG

BEGIN_CFG
 Size
    2
 AtomData:  id type       cartes_x      cartes_y      cartes_z           fx          fy          fz
             1    0       1.264859      6.447399      2.918265    -0.028240    0.496402    0.365929
             2    0       1.299383      5.840529      2.470903     0.028240   -0.496402   -0.365929
 Energy
        -26.733606125324
 PlusStress:  xx          yy          zz          yz          xz          xy
         0.00097     0.30125     0.16370     0.22207    -0.01263    -0.01714
END_CFG

BEGIN_CFG
 Size
    2
 AtomData:  id type       cartes_x      cartes_y      cartes_z           fx          fy          fz
             1    0      -1.462122      3.229215      4.975702     0.445859    0.531686   -0.914796
             2    0      -1.140522      3.612723      4.315855    -0.445859   -0.531686    0.914796
 Energy
        -26.709216904270
 PlusStress:  xx          yy          zz          yz          xz          xy
        -0.14339    -0.20391    -0.60363     0.35083     0.29420    -0.17099
END_CFG

BEGIN_CFG
 Size
    2
 AtomData:  id type       cartes_x      cartes_y      cartes_z           fx          fy          fz
             1    0       2.081150      4.042686      1.058001     1.440591    0.638627   -1.436257
             2    0       1.600221      3.829486      1.537483    -1.440591   -0.638627    1.436257
 Energy
        -26.676279444912
 PlusStress:  xx          yy          zz          yz          xz          xy
         0.69282     0.13616     0.68866    -0.30621    -0.69074     0.30713
END_CFG

BEGIN_CFG
 Size
    2
 AtomData:  id type       cartes_x      cartes_y      cartes_z           fx          fy          fz
             1    0       3.118380      4.391437      1.462239    -2.742277   -0.953061   -0.088883
             2    0       2.217696      4.078410      1.433046     2.742277    0.953061    0.088883
 Energy
        -26.442160165569
 PlusStress:  xx          yy          zz          yz          xz          xy
        -2.46992    -0.29833    -0.00259    -0.02782    -0.08006    -0.85841
END_CFG

BEGIN_CFG
 Size
    2
 AtomData:  id type       cartes_x      cartes_y      cartes_z           fx          fy          fz
             1    0      -1.472790      7.033115      4.004277    -1.911564   -2.225431   -0.735585
             2    0      -1.035556      7.542140      4.172528     1.911564    2.225431    0.735585
 Energy
        -26.624967110396
 PlusStress:  xx          yy          zz          yz          xz          xy
         0.83580     1.13280     0.12376     0.37443     0.32162     0.97303
END_CFG

BEGIN_CFG
 Size
    2
 AtomData:  id type       cartes_x      cartes_y      cartes_z           fx          fy          fz
             1    0      -0.225471      4.300783      4.341409     0.193989    0.004696   -0.288761
             2    0       0.215441      4.311456      3.685091    -0.193989   -0.004696    0.288761
 Energy
        -26.737778923350
 PlusStress:  xx          yy          zz          yz          xz          xy
        -0.08553    -0.00005    -0.18952     0.00308     0.12732    -0.00207
END_CFG

BEGIN_CFG
 Size
    2
 AtomData:  id type       cartes_x      cartes_y      cartes_z           fx          fy          fz
             1    0       0.697762      4.552799      2.854951    -0.165605    1.139526    0.552197
             2    0       0.589475      5.297921      3.216026     0.165605   -1.139526   -0.552197
 Energy
        -26.700899066280
 PlusStress:  xx          yy          zz          yz          xz          xy
        -0.01793    -0.84909    -0.19938    -0.41145     0.05980     0.12340
END_CFG

BEGIN_CFG
 Size
    2
 AtomData:  id type       cartes_x      cartes_y      cartes_z           fx          fy          fz
             1    0       0.247806      5.515333      2.436494     1.116614   -0.793251    0.575011
             2    0      -0.299788      5.904348      2.154505    -1.116614    0.793251   -0.575011
 Energy
        -26.706381552882
 PlusStress:  xx          yy          zz          yz          xz          xy
         0.61145     0.30859     0.16215    -0.22369     0.31487    -0.43438
END_CFG

BEGIN_CFG
 Size
    2
 AtomData:  id type       cartes_x      cartes_y      cartes_z           fx          fy          fz
             1    0      -1.040148      7.785676      2.572052     0.552399    0.344040    0.047849
             2    0      -0.359486      8.209599      2.631011    -0.552399   -0.344040   -0.047849
 Energy
        -26.731096891826
 PlusStress:  xx          yy          zz          yz          xz          xy
        -0.37600    -0.14585    -0.00282    -0.02028    -0.03257    -0.23417
END_CFG

BEGIN_CFG
 Size
    2
 AtomData:  id type       cartes_x      cartes_y      cartes_z           fx          fy          fz
             1    0       0.681354      7.588105      5.565223    -1.438691   -0.853456    2.053101
             2    0       0.176416      7.288567      6.285801     1.438691    0.853456   -2.053101
 Energy
        -26.510266857864
 PlusStress:  xx          yy          zz          yz          xz          xy
        -0.72645    -0.25564    -1.47942     0.61498     1.03669    -0.43094
END_CFG

BEGIN_CFG
 Size
    2
 AtomData:  id type       cartes_x      cartes_y      cartes_z           fx          fy          fz
             1    0       2.088060      8.304691      7.730366    -0.411381    0.797861   -2.375122
             2    0       1.939007      8.593775      6.869803     0.411381   -0.797861    2.375122
 Energy
        -26.534901992599
 PlusStress:  xx          yy          zz          yz          xz          xy
        -0.06132    -0.23065    -2.04394     0.68661    -0.35402     0.11892
END_CFG

BEGIN_CFG
 Size
    2
 AtomData:  id type       cartes_x      cartes_y      cartes_z           fx          fy          fz
             1    0       3.320472      9.891695      3.694510     0.573658    0.084234    0.496235
             2    0       3.928693      9.981004      4.220643    -0.573658   -0.084234   -0.496235
 Energy
        -26.727481099135
 PlusStress:  xx          yy          zz          yz          xz          xy
        -0.34891    -0.00752    -0.26109    -0.04432    -0.30182    -0.05123
END_CFG

BEGIN_CFG
 Size
    2
 AtomData:  id type       cartes_x      cartes_y      cartes_z           fx          fy          fz
             1    0       3.160252     11.633037      9.749455     0.033952   -0.024722    0.000466
             2    0       3.789464     11.174871      9.758096    -0.033952    0.024722   -0.000466
 Energy
        -26.740210142020
 PlusStress:  xx          yy          zz          yz          xz          xy
        -0.02136    -0.01133    -0.00000     0.00021    -0.00029     0.01556
END_CFG

BEGIN_CFG
 Size
    2
 AtomData:  id type       cartes_x      cartes_y      cartes_z           fx          fy          fz
             1    0       1.828040     10.106676     12.877009     0.031603    0.048857    0.116790
             2    0       1.641099      9.817674     12.186165    -0.031603   -0.048857   -0.116790
 Energy
        -26.739924074807
 PlusStress:  xx          yy          zz          yz          xz          xy
         0.00591     0.01412     0.08068     0.03375     0.02183     0.00913
END_CFG

BEGIN_CFG
 Size
    2
 AtomData:  id type       cartes_x      cartes_y      cartes_z           fx          fy          fz
             1    0      -0.199036     11.365494     14.121974    -0.100613    0.162577    0.482693
             2    0      -0.052137     11.128125     13.417221     0.100613   -0.162577   -0.482693
 Energy
        -26.735477856729
 PlusStress:  xx          yy          zz          yz          xz          xy
         0.01478     0.03859     0.34018     0.11458    -0.07091    -0.02388
END_CFG

BEGIN_CFG
 Size
    2
 AtomData:  id type       cartes_x      cartes_y      cartes_z           fx          fy          fz
             1    0      -3.638841     10.538988     16.052024    -0.385115    0.026397    0.546656
             2    0      -4.101987     10.570733     16.709442     0.385115   -0.026397   -0.546656
 Energy
        -26.730594611614
 PlusStress:  xx          yy          zz          yz          xz          xy
        -0.17836    -0.00084    -0.35938    -0.01735     0.25318     0.01223
END_CFG

BEGIN_CFG
 Size
    2
 AtomData:  id type       cartes_x      cartes_y      cartes_z           fx          fy          fz
             1    0      -3.799826     13.374588     19.627285    -0.580731   -1.058570   -1.431101
             2    0      -4.069813     12.882449     18.961953     0.580731    1.058570    1.431101
 Energy
        -26.644753080484
 PlusStress:  xx          yy          zz          yz          xz          xy
        -0.15679    -0.52096    -0.95216    -0.70430    -0.38638    -0.28580
END_CFG

BEGIN_CFG
 Size
    2
 AtomData:  id type       cartes_x      cartes_y      cartes_z           fx          fy          fz
             1    0      -4.404139     16.212205     19.989760    -0.464825   -0.297491   -2.776208
             2    0      -4.289862     16.285343     20.672290     0.464825    0.297491    2.776208
 Energy
        -26.636920673621
 PlusStress:  xx          yy          zz          yz          xz          xy
         0.05312     0.02176     1.89485     0.20305     0.31726     0.03400
END_CFG

