BEGIN_CFG
 Size
    4
 Supercell
         3.610000      0.000000      0.000000
         0.000000      3.610000      0.000000
         0.000000      0.000000      3.610000
 AtomData:  id type       cartes_x      cartes_y      cartes_z           fx          fy          fz
             1    0       0.000000      0.000000      0.000000     0.000000   -0.000000   -0.000000
             2    0       0.000000      1.805000      1.805000    -0.000000    0.000000    0.000000
             3    0       1.805000      0.000000      1.805000     0.000000   -0.000000   -0.000000
             4    0       1.805000      1.805000      0.000000    -0.000000   -0.000000    0.000000
 Energy
         -0.022756497644
 PlusStress:  xx          yy          zz          yz          xz          xy
        -0.65090    -0.65090    -0.65090    -0.00000    -0.00000    -0.00000
END_CFG

BEGIN_CFG
 Size
    4
 Supercell
         3.610000      0.000000      0.000000
         0.000000      3.610000      0.000000
         0.000000      0.000000      3.610000
 AtomData:  id type       cartes_x      cartes_y      cartes_z           fx          fy          fz
             1    0       0.005511     -0.018809      0.013573    -0.100073    0.069281   -0.203924
             2    0       0.017011      1.769714      1.781449    -0.186370    0.170847    0.293310
             3    0       1.807312     -0.005720      1.804696     0.076303   -0.028392    0.118849
             4    0       1.789572      1.820905      0.014067     0.210140   -0.211736   -0.208234
 Energy
         -0.007804054027
 PlusStress:  xx          yy          zz          yz          xz          xy
        -0.58079    -0.59059    -0.59851     0.01532    -0.02801    -0.02258
END_CFG

BEGIN_CFG
 Size
    4
 Supercell
         3.610000      0.000000      0.000000
         0.000000      3.610000      0.000000
         0.000000      0.000000      3.610000
 AtomData:  id type       cartes_x      cartes_y      cartes_z           fx          fy          fz
             1    0       0.010644     -0.037358      0.026376    -0.197865    0.135454   -0.398216
             2    0       0.033319      1.735069      1.759003    -0.370355    0.339338    0.578637
             3    0       1.809913     -0.011546      1.804842     0.148299   -0.057036    0.229546
             4    0       1.774936      1.836013      0.027349     0.419921   -0.417755   -0.409967
 Energy
          0.034705967854
 PlusStress:  xx          yy          zz          yz          xz          xy
        -0.38264    -0.42041    -0.45194     0.05779    -0.10661    -0.08562
END_CFG

BEGIN_CFG
 Size
    4
 Supercell
         3.610000      0.000000      0.000000
         0.000000      3.610000      0.000000
         0.000000      0.000000      3.610000
 AtomData:  id type       cartes_x      cartes_y      cartes_z           fx          fy          fz
             1    0       0.015028     -0.055396      0.037675    -0.289201    0.195699   -0.572682
             2    0       0.048229      1.701703      1.738742    -0.545741    0.502351    0.844858
             3    0       1.813076     -0.017586      1.805856     0.210821   -0.086037    0.323598
             4    0       1.761885      1.849548      0.039081     0.624121   -0.612013   -0.595774
 Energy
          0.097850915732
 PlusStress:  xx          yy          zz          yz          xz          xy
        -0.09118    -0.17110    -0.24117     0.11774    -0.22028    -0.17600
END_CFG

BEGIN_CFG
 Size
    4
 Supercell
         3.610000      0.000000      0.000000
         0.000000      3.610000      0.000000
         0.000000      0.000000      3.610000
 AtomData:  id type       cartes_x      cartes_y      cartes_z           fx          fy          fz
             1    0       0.018316     -0.072697      0.046808    -0.366893    0.247704   -0.716441
             2    0       0.061073      1.670232      1.721677    -0.700518    0.655629    1.076272
             3    0       1.817039     -0.023948      1.808098     0.257475   -0.115259    0.392199
             4    0       1.751196      1.860772      0.048557     0.809936   -0.788074   -0.752029
 Energy
          0.170740180415
 PlusStress:  xx          yy          zz          yz          xz          xy
         0.24169     0.11133    -0.00986     0.18167    -0.34597    -0.27481
END_CFG

BEGIN_CFG
 Size
    4
 Supercell
         3.610000      0.000000      0.000000
         0.000000      3.610000      0.000000
         0.000000      0.000000      3.610000
 AtomData:  id type       cartes_x      cartes_y      cartes_z           fx          fy          fz
             1    0       0.020209     -0.089064      0.053226    -0.420999    0.289840   -0.818624
             2    0       0.071261      1.641241      1.708691    -0.818212    0.793790    1.253961
             3    0       1.821982     -0.030744      1.811828     0.281115   -0.144063    0.426999
             4    0       1.743579      1.869015      0.055179     0.958096   -0.939566   -0.862336
 Energy
          0.240116160091
 PlusStress:  xx          yy          zz          yz          xz          xy
         0.55663     0.37390     0.19403     0.23519    -0.45764    -0.36100
END_CFG

BEGIN_CFG
 Size
    4
 Supercell
         3.610000      0.000000      0.000000
         0.000000      3.610000      0.000000
         0.000000      0.000000      3.610000
 AtomData:  id type       cartes_x      cartes_y      cartes_z           fx          fy          fz
             1    0       0.020499     -0.104337      0.056538    -0.440755    0.321227   -0.869759
             2    0       0.078340      1.615258      1.700466    -0.882357    0.910938    1.360019
             3    0       1.827996     -0.038080      1.817181     0.275203   -0.171313    0.421363
             4    0       1.739601      1.873697      0.058524     1.047909   -1.060852   -0.911623
 Energy
          0.293153033529
 PlusStress:  xx          yy          zz          yz          xz          xy
         0.79950     0.56798     0.32966     0.26590    -0.53211    -0.41529
END_CFG

BEGIN_CFG
 Size
    4
 Supercell
         3.610000      0.000000      0.000000
         0.000000      3.610000      0.000000
         0.000000      0.000000      3.610000
 AtomData:  id type       cartes_x      cartes_y      cartes_z           fx          fy          fz
             1    0       0.019109     -0.118397      0.056548    -0.417535    0.341756   -0.863542
             2    0       0.082064      1.592731      1.697409    -0.882321    1.001520    1.382974
             3    0       1.835061     -0.046060      1.824136     0.235537   -0.195411    0.371826
             4    0       1.739609      1.874354      0.058401     1.064319   -1.147865   -0.891258
 Energy
          0.320825589985
 PlusStress:  xx          yy          zz          yz          xz          xy
         0.93388     0.66113     0.37371     0.26530    -0.55425    -0.42349
END_CFG

BEGIN_CFG
 Size
    4
 Supercell
         3.610000      0.000000      0.000000
         0.000000      3.610000      0.000000
         0.000000      0.000000      3.610000
 AtomData:  id type       cartes_x      cartes_y      cartes_z           fx          fy          fz
             1    0       0.016125     -0.131167      0.053277    -0.347845    0.351919   -0.798228
             2    0       0.082434      1.574007      1.699608    -0.817543    1.061386    1.321669
             3    0       1.843026     -0.054775      1.832505     0.161715   -0.214702    0.279064
             4    0       1.743664      1.870652      0.054888     1.003673   -1.198604   -0.802505
 Energy
          0.320443006347
 PlusStress:  xx          yy          zz          yz          xz          xy
         0.94892     0.64537     0.32589     0.22983    -0.51978    -0.37906
END_CFG

BEGIN_CFG
 Size
    4
 Supercell
         3.610000      0.000000      0.000000
         0.000000      3.610000      0.000000
         0.000000      0.000000      3.610000
 AtomData:  id type       cartes_x      cartes_y      cartes_z           fx          fy          fz
             1    0       0.011814     -0.142610      0.046976    -0.234974    0.352410   -0.677276
             2    0       0.079699      1.559317      1.706827    -0.697864    1.088708    1.185616
             3    0       1.851610     -0.064297      1.841935     0.057664   -0.227918    0.148050
             4    0       1.751533      1.862396      0.048325     0.875174   -1.213200   -0.656390
 Energy
          0.296046386836
 PlusStress:  xx          yy          zz          yz          xz          xy
         0.85942     0.53822     0.20753     0.16158    -0.43461    -0.28477
END_CFG

BEGIN_CFG
 Size
    4
 Supercell
         3.610000      0.000000      0.000000
         0.000000      3.610000      0.000000
         0.000000      0.000000      3.610000
 AtomData:  id type       cartes_x      cartes_y      cartes_z           fx          fy          fz
             1    0       0.006606     -0.152723      0.038105    -0.088627    0.343576   -0.508929
             2    0       0.074315      1.548765      1.718545    -0.540141    1.084315    0.991760
             3    0       1.860417     -0.074675      1.851928    -0.068902   -0.234552   -0.012619
             4    0       1.762724      1.849530      0.039270     0.697670   -1.193339   -0.470212
 Energy
          0.256455536010
 PlusStress:  xx          yy          zz          yz          xz          xy
         0.69861     0.37562     0.05403     0.06858    -0.31203    -0.15292
END_CFG

BEGIN_CFG
 Size
    4
 Supercell
         3.610000      0.000000      0.000000
         0.000000      3.610000      0.000000
         0.000000      0.000000      3.610000
 AtomData:  id type       cartes_x      cartes_y      cartes_z           fx          fy          fz
             1    0       0.001058     -0.161542      0.027305     0.076986    0.325160   -0.305223
             2    0       0.066886      1.542334      1.734021    -0.363216    1.050960    0.759672
             3    0       1.868966     -0.085935      1.861873    -0.207590   -0.234940   -0.191695
             4    0       1.776558      1.832128      0.028432     0.493819   -1.141180   -0.262754
 Energy
          0.212015862779
 PlusStress:  xx          yy          zz          yz          xz          xy
         0.50684     0.19983    -0.09583    -0.03581    -0.16947    -0.00380
END_CFG

BEGIN_CFG
 Size
    4
 Supercell
         3.610000      0.000000      0.000000
         0.000000      3.610000      0.000000
         0.000000      0.000000      3.610000
 AtomData:  id type       cartes_x      cartes_y      cartes_z           fx          fy          fz
             1    0      -0.004200     -0.169135      0.015352     0.245761    0.296392   -0.080767
             2    0       0.058085      1.539898      1.752371    -0.183408    0.991905    0.507320
             3    0       1.876730     -0.098078      1.871093    -0.346598   -0.230074   -0.376219
             4    0       1.792259      1.810390      0.016601     0.284245   -1.058224   -0.050335
 Energy
          0.171521371451
 PlusStress:  xx          yy          zz          yz          xz          xy
         0.32065     0.04707    -0.21009    -0.13475    -0.02604     0.13797
END_CFG

BEGIN_CFG
 Size
    4
 Supercell
         3.610000      0.000000      0.000000
         0.000000      3.610000      0.000000
         0.000000      0.000000      3.610000
 AtomData:  id type       cartes_x      cartes_y      cartes_z           fx          fy          fz
             1    0      -0.008528     -0.175612      0.003095     0.402060    0.256641    0.148400
             2    0       0.048592      1.541228      1.772638    -0.012114    0.909522    0.248825
             3    0       1.883185     -0.111084      1.878889    -0.473781   -0.221217   -0.552263
             4    0       1.809032      1.784634      0.004580     0.083836   -0.944946    0.155038
 Energy
          0.140405752395
 PlusStress:  xx          yy          zz          yz          xz          xy
         0.16558    -0.06052    -0.27052    -0.21109     0.09901     0.24846
END_CFG

BEGIN_CFG
 Size
    4
 Supercell
         3.610000      0.000000      0.000000
         0.000000      3.610000      0.000000
         0.000000      0.000000      3.610000
 AtomData:  id type       cartes_x      cartes_y      cartes_z           fx          fy          fz
             1    0      -0.011334     -0.181122     -0.008598     0.532365    0.206204    0.365806
             2    0       0.039056      1.546006      1.793843     0.144225    0.804703   -0.005446
             3    0       1.887846     -0.124922      1.884595    -0.577441   -0.209315   -0.705687
             4    0       1.826118      1.755293     -0.006854    -0.099149   -0.801591    0.345328
 Energy
          0.120404569396
 PlusStress:  xx          yy          zz          yz          xz          xy
         0.05358    -0.11730    -0.27486    -0.25106     0.18787     0.30950
END_CFG

BEGIN_CFG
 Size
    4
 Supercell
         3.610000      0.000000      0.000000
         0.000000      3.610000      0.000000
         0.000000      0.000000      3.610000
 AtomData:  id type       cartes_x      cartes_y      cartes_z           fx          fy          fz
             1    0      -0.012125     -0.185856     -0.018904     0.626512    0.146950    0.555878
             2    0       0.030069      1.553832      1.815025     0.282663    0.677489   -0.247368
             3    0       1.890323     -0.139546      1.887632    -0.647520   -0.194557   -0.823330
             4    0       1.842825      1.722915     -0.016983    -0.261655   -0.629882    0.514821
 Energy
          0.110314426234
 PlusStress:  xx          yy          zz          yz          xz          xy
        -0.01560    -0.13139    -0.23509    -0.24760     0.22681     0.31268
END_CFG

BEGIN_CFG
 Size
    4
 Supercell
         3.610000      0.000000      0.000000
         0.000000      3.610000      0.000000
         0.000000      0.000000      3.610000
 AtomData:  id type       cartes_x      cartes_y      cartes_z           fx          fy          fz
             1    0      -0.010542     -0.190037     -0.027103     0.678419    0.082284    0.705547
             2    0       0.022154      1.564218      1.835269     0.401361    0.528489   -0.468995
             3    0       1.890347     -0.154902      1.887553    -0.676831   -0.176121   -0.894488
             4    0       1.858540      1.688155     -0.025164    -0.402949   -0.434652    0.657936
 Energy
          0.107213552559
 PlusStress:  xx          yy          zz          yz          xz          xy
        -0.05082    -0.11913    -0.17253    -0.20230     0.20967     0.26105
END_CFG

BEGIN_CFG
 Size
    4
 Supercell
         3.610000      0.000000      0.000000
         0.000000      3.610000      0.000000
         0.000000      0.000000      3.610000
 AtomData:  id type       cartes_x      cartes_y      cartes_z           fx          fy          fz
             1    0      -0.006390     -0.193909     -0.032628     0.686528    0.016569    0.805922
             2    0       0.015760      1.576599      1.853736     0.497445    0.360090   -0.661136
             3    0       1.887808     -0.170922      1.884087    -0.662396   -0.152346   -0.912465
             4    0       1.872727      1.651755     -0.030854    -0.521577   -0.224313    0.767679
 Energy
          0.107681156735
 PlusStress:  xx          yy          zz          yz          xz          xy
        -0.06498    -0.09881    -0.11164    -0.12539     0.14119     0.16833
END_CFG

BEGIN_CFG
 Size
    4
 Supercell
         3.610000      0.000000      0.000000
         0.000000      3.610000      0.000000
         0.000000      0.000000      3.610000
 AtomData:  id type       cartes_x      cartes_y      cartes_z           fx          fy          fz
             1    0       0.000363     -0.197721     -0.035099     0.653314   -0.045894    0.853197
             2    0       0.011252      1.590339      1.869697     0.565951    0.176931   -0.813293
             3    0       1.882757     -0.187516      1.877164    -0.605758   -0.121394   -0.875351
             4    0       1.884938      1.614510     -0.033638    -0.613507   -0.009643    0.835447
 Energy
          0.108758902987
 PlusStress:  xx          yy          zz          yz          xz          xy
        -0.07051    -0.08538    -0.07373    -0.03361     0.03768     0.05573
END_CFG

BEGIN_CFG
 Size
    4
 Supercell
         3.610000      0.000000      0.000000
         0.000000      3.610000      0.000000
         0.000000      0.000000      3.610000
 AtomData:  id type       cartes_x      cartes_y      cartes_z           fx          fy          fz
             1    0       0.009592     -0.201707     -0.034336     0.583999   -0.101846    0.848300
             2    0       0.008891      1.604748      1.882577     0.600550   -0.014640   -0.915203
             3    0       1.875410     -0.204569      1.866925    -0.512211   -0.082100   -0.785647
             4    0       1.894824      1.577231     -0.033256    -0.672338    0.198586    0.852550
 Energy
          0.108674565186
 PlusStress:  xx          yy          zz          yz          xz          xy
        -0.07511    -0.08680    -0.07150     0.05349    -0.07602    -0.05242
END_CFG

BEGIN_CFG
 Size
    4
 Supercell
         3.610000      0.000000      0.000000
         0.000000      3.610000      0.000000
         0.000000      0.000000      3.610000
 AtomData:  id type       cartes_x      cartes_y      cartes_z           fx          fy          fz
             1    0       0.021034     -0.206079     -0.030359     0.484581   -0.149606    0.795291
             2    0       0.008806      1.619104      1.891988     0.595732   -0.207695   -0.959398
             3    0       1.866121     -0.221934      1.853708    -0.388804   -0.034777   -0.648893
             4    0       1.902162      1.540702     -0.029643    -0.691509    0.392078    0.812999
 Energy
          0.107351183867
 PlusStress:  xx          yy          zz          yz          xz          xy
        -0.07866    -0.10222    -0.10545     0.11745    -0.17287    -0.13312
END_CFG

BEGIN_CFG
 Size
    4
 Supercell
         3.610000      0.000000      0.000000
         0.000000      3.610000      0.000000
         0.000000      0.000000      3.610000
 AtomData:  id type       cartes_x      cartes_y      cartes_z           fx          fy          fz
             1    0       0.034313     -0.211017     -0.023371     0.360010   -0.189055    0.699368
             2    0       0.010979      1.632678      1.897766     0.549265   -0.395813   -0.943620
             3    0       1.855356     -0.239433      1.838032    -0.242130    0.018520   -0.471958
             4    0       1.906881      1.505653     -0.022948    -0.667144    0.566348    0.716210
 Energy
          0.106626081365
 PlusStress:  xx          yy          zz          yz          xz          xy
        -0.07229    -0.12212    -0.16311     0.14395    -0.23069    -0.16808
END_CFG

BEGIN_CFG
 Size
    4
 Supercell
         3.610000      0.000000      0.000000
         0.000000      3.610000      0.000000
         0.000000      0.000000      3.610000
 AtomData:  id type       cartes_x      cartes_y      cartes_z           fx          fy          fz
             1    0       0.048957     -0.216667     -0.013736     0.213353   -0.221106    0.565283
             2    0       0.015233      1.644761      1.899972     0.463720   -0.573735   -0.871700
             3    0       1.843672     -0.256863      1.820568    -0.077019    0.074334   -0.261712
             4    0       1.909073      1.472742     -0.013539    -0.600053    0.720508    0.568129
 Energy
          0.109949610620
 PlusStress:  xx          yy          zz          yz          xz          xy
        -0.04055    -0.13052    -0.22182     0.12448    -0.23674    -0.14606
END_CFG

BEGIN_CFG
 Size
    4
 Supercell
         3.610000      0.000000      0.000000
         0.000000      3.610000      0.000000
         0.000000      0.000000      3.610000
 AtomData:  id type       cartes_x      cartes_y      cartes_z           fx          fy          fz
             1    0       0.064411     -0.223152     -0.001962     0.046335   -0.246843    0.397064
             2    0       0.021241      1.654676      1.898880     0.346361   -0.737489   -0.752723
             3    0       1.831693     -0.274016      1.802110     0.103393    0.128653   -0.024706
             4    0       1.908996      1.442553     -0.001980    -0.496089    0.855679    0.380364
 Energy
          0.121433307224
 PlusStress:  xx          yy          zz          yz          xz          xy
         0.03327    -0.10929    -0.25486     0.05702    -0.18872    -0.06446
END_CFG

BEGIN_CFG
 Size
    4
 Supercell
         3.610000      0.000000      0.000000
         0.000000      3.610000      0.000000
         0.000000      0.000000      3.610000
 AtomData:  id type       cartes_x      cartes_y      cartes_z           fx          fy          fz
             1    0       0.080042     -0.230566      0.011313    -0.138778   -0.266778    0.199136
             2    0       0.028560      1.661800      1.894944     0.207772   -0.884013   -0.598997
             3    0       1.820102     -0.290685      1.783557     0.296027    0.177832    0.231918
             4    0       1.907043      1.415603      0.011020    -0.365021    0.972959    0.167944
 Energy
          0.144344228539
 PlusStress:  xx          yy          zz          yz          xz          xy
         0.15999    -0.04396    -0.23965    -0.05348    -0.09295     0.06968
END_CFG

BEGIN_CFG
 Size
    4
 Supercell
         3.610000      0.000000      0.000000
         0.000000      3.610000      0.000000
         0.000000      0.000000      3.610000
 AtomData:  id type       cartes_x      cartes_y      cartes_z           fx          fy          fz
             1    0       0.095149     -0.238986      0.025340    -0.336505   -0.280351   -0.021657
             2    0       0.036663      1.665571      1.888744     0.060442   -1.010446   -0.424004
             3    0       1.809629     -0.306687      1.765880     0.495227    0.219415    0.498624
             4    0       1.903712      1.392342      0.024655    -0.219164    1.071383   -0.052963
 Energy
          0.179414235011
 PlusStress:  xx          yy          zz          yz          xz          xy
         0.33778     0.06997    -0.16575    -0.19495     0.03800     0.23945
END_CFG

BEGIN_CFG
 Size
    4
 Supercell
         3.610000      0.000000      0.000000
         0.000000      3.610000      0.000000
         0.000000      0.000000      3.610000
 AtomData:  id type       cartes_x      cartes_y      cartes_z           fx          fy          fz
             1    0       0.108982     -0.248461      0.039282    -0.535692   -0.286062   -0.253701
             2    0       0.044991      1.665505      1.880942    -0.082436   -1.113195   -0.241139
             3    0       1.801030     -0.321865      1.750091     0.690207    0.252526    0.761457
             4    0       1.899557      1.373151      0.038088    -0.072079    1.146732   -0.266617
 Energy
          0.223482987829
 PlusStress:  xx          yy          zz          yz          xz          xy
         0.54793     0.22231    -0.04031    -0.34857     0.18687     0.41961
END_CFG

BEGIN_CFG
 Size
    4
 Supercell
         3.610000      0.000000      0.000000
         0.000000      3.610000      0.000000
         0.000000      0.000000      3.610000
 AtomData:  id type       cartes_x      cartes_y      cartes_z           fx          fy          fz
             1    0       0.120780     -0.259014      0.052257    -0.718566   -0.282078   -0.479391
             2    0       0.053003      1.661203      1.872230    -0.207870   -1.187309   -0.063152
             3    0       1.795048     -0.336094      1.737190     0.863853    0.277815    1.001112
             4    0       1.895135      1.358325      0.050510     0.062583    1.191572   -0.458568
 Energy
          0.269086426374
 PlusStress:  xx          yy          zz          yz          xz          xy
         0.75515     0.38710     0.11109    -0.49080     0.33261     0.58036
END_CFG

BEGIN_CFG
 Size
    4
 Supercell
         3.610000      0.000000      0.000000
         0.000000      3.610000      0.000000
         0.000000      0.000000      3.610000
 AtomData:  id type       cartes_x      cartes_y      cartes_z           fx          fy          fz
             1    0       0.129845     -0.270631      0.063405    -0.862776   -0.267233   -0.676365
             2    0       0.060222      1.652380      1.863280    -0.304170   -1.226826    0.098197
             3    0       1.792349     -0.349281      1.728092     0.994405    0.296949    1.194486
             4    0       1.890956      1.348041      0.061194     0.172541    1.197110   -0.616318
 Energy
          0.305642412875
 PlusStress:  xx          yy          zz          yz          xz          xy
         0.91402     0.52703     0.24983    -0.59722     0.45218     0.69321
END_CFG

BEGIN_CFG
 Size
    4
 Supercell
         3.610000      0.000000      0.000000
         0.000000      3.610000      0.000000
         0.000000      0.000000      3.610000
 AtomData:  id type       cartes_x      cartes_y      cartes_z           fx          fy          fz
             1    0       0.135625     -0.283254      0.071975    -0.946692   -0.241929   -0.821850
             2    0       0.066281      1.638883      1.854705    -0.362552   -1.226074    0.232673
             3    0       1.793433     -0.361352      1.723537     1.060579    0.311526    1.319296
             4    0       1.887440      1.342322      0.069539     0.248665    1.156477   -0.730119
 Energy
          0.322332723039
 PlusStress:  xx          yy          zz          yz          xz          xy
         0.98066     0.60291     0.33500    -0.64823     0.52459     0.73765
END_CFG

BEGIN_CFG
 Size
    4
 Supercell
         3.610000      0.000000      0.000000
         0.000000      3.610000      0.000000
         0.000000      0.000000      3.610000
 AtomData:  id type       cartes_x      cartes_y      cartes_z           fx          fy          fz
             1    0       0.137797     -0.296788      0.077411    -0.956461   -0.208309   -0.898976
             2    0       0.070957      1.620716      1.847014    -0.378812   -1.181747    0.332528
             3    0       1.798557     -0.372253      1.724003     1.048598    0.322072    1.360376
             4    0       1.884874      1.341014      0.075114     0.286675    1.067984   -0.793927
 Energy
          0.311879254557
 PlusStress:  xx          yy          zz          yz          xz          xy
         0.92652     0.58578     0.33651    -0.63444     0.53659     0.70653
END_CFG

BEGIN_CFG
 Size
    4
 Supercell
         3.610000      0.000000      0.000000
         0.000000      3.610000      0.000000
         0.000000      0.000000      3.610000
 AtomData:  id type       cartes_x      cartes_y      cartes_z           fx          fy          fz
             1    0       0.136324     -0.311105      0.079419    -0.891316   -0.169762   -0.902012
             2    0       0.074189      1.598050      1.840586    -0.354324   -1.094404    0.393323
             3    0       1.807674     -0.381942      1.729645     0.957930    0.327312    1.314518
             4    0       1.883403      1.343776      0.077676     0.287710    0.936854   -0.805830
 Energy
          0.273503495767
 PlusStress:  xx          yy          zz          yz          xz          xy
         0.74896     0.46689     0.24526    -0.55983     0.48766     0.60805
END_CFG

BEGIN_CFG
 Size
    4
 Supercell
         3.610000      0.000000      0.000000
         0.000000      3.610000      0.000000
         0.000000      0.000000      3.610000
 AtomData:  id type       cartes_x      cartes_y      cartes_z           fx          fy          fz
             1    0       0.131459     -0.326060      0.077993    -0.763821   -0.129834   -0.837404
             2    0       0.076070      1.571224      1.835653    -0.295605   -0.968695    0.414293
             3    0       1.820438     -0.390399      1.740284     0.801929    0.324453    1.190874
             4    0       1.883030      1.350102      0.077182     0.257497    0.774075   -0.767762
 Energy
          0.213461399736
 PlusStress:  xx          yy          zz          yz          xz          xy
         0.47352     0.26160     0.07621    -0.44085     0.39101     0.46353
END_CFG

BEGIN_CFG
 Size
    4
 Supercell
         3.610000      0.000000      0.000000
         0.000000      3.610000      0.000000
         0.000000      0.000000      3.610000
 AtomData:  id type       cartes_x      cartes_y      cartes_z           fx          fy          fz
             1    0       0.123692     -0.341500      0.073383    -0.594738   -0.091291   -0.719954
             2    0       0.076826      1.540724      1.832292    -0.212585   -0.811955    0.397961
             3    0       1.836248     -0.397633      1.755444     0.602944    0.310174    1.006558
             4    0       1.883637      1.359366      0.073778     0.204380    0.593073   -0.684565
 Energy
          0.142962980633
 PlusStress:  xx          yy          zz          yz          xz          xy
         0.14731     0.00573    -0.13666    -0.30178     0.26981     0.30201
END_CFG

BEGIN_CFG
 Size
    4
 Supercell
         3.610000      0.000000      0.000000
         0.000000      3.610000      0.000000
         0.000000      0.000000      3.610000
 AtomData:  id type       cartes_x      cartes_y      cartes_z           fx          fy          fz
             1    0       0.113671     -0.357281      0.066042    -0.405429   -0.055608   -0.566643
             2    0       0.076773      1.507151      1.830439    -0.115975   -0.632094    0.349281