BEGIN_CFG
 Size
     2
 AtomData:  id type       cartes_x      cartes_y      cartes_z           fx          fy          fz
             1    0       0.388362     -0.000000     -0.000000    -0.000681   -0.000000   -0.000000
             2    0      -0.388362      0.000000      0.000000     0.000681   -0.000000   -0.000000
 Energy
        -26.740252828161
END_CFG

BEGIN_CFG
 Size
     2
 AtomData:  id type       cartes_x      cartes_y      cartes_z           fx          fy          fz
             1    0       1.474026      5.312450     -1.627169    -0.179313   -0.421198    0.377002
             2    0       1.702476      5.849071     -2.107483     0.179313    0.421198   -0.377002
 Energy
        -26.734129752929
END_CFG

BEGIN_CFG
 Size
     2
 AtomData:  id type       cartes_x      cartes_y      cartes_z           fx          fy          fz
             1    0      -1.760653      6.091512     -3.725743     0.045992   -0.153072   -0.224070
             2    0      -1.888737      6.517806     -3.101722    -0.045992    0.153072    0.224070
 Energy
        -26.738866187020
END_CFG

BEGIN_CFG
 Size
     2
 AtomData:  id type       cartes_x      cartes_y      cartes_z           fx          fy          fz
             1    0       1.264859      6.447399      2.918265    -0.028256    0.496707    0.366157
             2    0       1.299383      5.840529      2.470903     0.028256   -0.496707   -0.366157
 Energy
        -26.733634515362
END_CFG

BEGIN_CFG
 Size
     2
 AtomData:  id type       cartes_x      cartes_y      cartes_z           fx          fy          fz
             1    0      -1.462122      3.229215      4.975702     0.445084    0.530765   -0.913208
             2    0      -1.140522      3.612723      4.315855    -0.445084   -0.530765    0.913208
 Energy
        -26.709130852366
END_CFG

BEGIN_CFG
 Size
     2
 AtomData:  id type       cartes_x      cartes_y      cartes_z           fx          fy          fz
             1    0       2.081150      4.042686      1.058001     1.443643    0.639980   -1.439300
             2    0       1.600221      3.829486      1.537483    -1.443643   -0.639980    1.439300
 Energy
        -26.676170531723
END_CFG

BEGIN_CFG
 Size
     2
 AtomData:  id type       cartes_x      cartes_y      cartes_z           fx          fy          fz
             1    0       3.118380      4.391437      1.462239    -2.735166   -0.950589   -0.088652
             2    0       2.217696      4.078410      1.433046     2.735166    0.950589    0.088652
 Energy
        -26.442225451022
END_CFG

BEGIN_CFG
 Size
     2
 AtomData:  id type       cartes_x      cartes_y      cartes_z           fx          fy          fz
             1    0      -1.472790      7.033115      4.004277    -1.909388   -2.222907   -0.734748
             2    0      -1.035556      7.542140      4.172528     1.909388    2.222907    0.734748
 Energy
        -26.624824393418
END_CFG

BEGIN_CFG
 Size
     2
 AtomData:  id type       cartes_x      cartes_y      cartes_z           fx          fy          fz
             1    0      -0.225471      4.300783      4.341409     0.195485    0.004732   -0.290987
             2    0       0.215441      4.311456      3.685091    -0.195485   -0.004732    0.290987
 Energy
        -26.737754363271
END_CFG

BEGIN_CFG
 Size
     2
 AtomData:  id type       cartes_x      cartes_y      cartes_z           fx          fy          fz
             1    0       0.697762      4.552799      2.854951    -0.164938    1.134936    0.549971
             2    0       0.589475      5.297921      3.216026     0.164938   -1.134936   -0.549971
 Energy
        -26.700836427165
END_CFG

BEGIN_CFG
 Size
     2
 AtomData:  id type       cartes_x      cartes_y      cartes_z           fx          fy          fz
             1    0       0.247806      5.515333      2.436494     1.119727   -0.795462    0.576617
             2    0      -0.299788      5.904348      2.154505    -1.119727    0.795462   -0.576617
 Energy
        -26.706349549763
END_CFG

BEGIN_CFG
 Size
     2
 AtomData:  id type       cartes_x      cartes_y      cartes_z           fx          fy          fz
             1    0      -1.040148      7.785676      2.572052     0.554636    0.345432    0.048041
             2    0      -0.359486      8.209599      2.631011    -0.554636   -0.345432   -0.048041
 Energy
        -26.731035885732
END_CFG

BEGIN_CFG
 Size
     2
 AtomData:  id type       cartes_x      cartes_y      cartes_z           fx          fy          fz
             1    0       0.681354      7.588105      5.565223    -1.442422   -0.855667    2.058424
             2    0       0.176416      7.288567      6.285801     1.442422    0.855667   -2.058424
 Energy
        -26.510341110139
END_CFG

BEGIN_CFG
 Size
     2
 AtomData:  id type       cartes_x      cartes_y      cartes_z           fx          fy          fz
             1    0       2.088060      8.304691      7.730366    -0.412988    0.800978   -2.384399
             2    0       1.939007      8.593775      6.869803     0.412988   -0.800978    2.384399
 Energy
        -26.535058743776
END_CFG

BEGIN_CFG
 Size
     2
 AtomData:  id type       cartes_x      cartes_y      cartes_z           fx          fy          fz
             1    0       3.320472      9.891695      3.694510     0.575391    0.084489    0.497734
             2    0       3.928693      9.981004      4.220643    -0.575391   -0.084489   -0.497734
 Energy
        -26.727407396299
END_CFG

BEGIN_CFG
 Size
     2
 AtomData:  id type       cartes_x      cartes_y      cartes_z           fx          fy          fz
             1    0       3.160252     11.633037      9.749455     0.035617   -0.025935    0.000489
             2    0       3.789464     11.174871      9.758096    -0.035617    0.025935   -0.000489
 Energy
        -26.740215388442
END_CFG

BEGIN_CFG
 Size
     2
 AtomData:  id type       cartes_x      cartes_y      cartes_z           fx          fy          fz
             1    0       1.828040     10.106676     12.877009     0.031231    0.048280    0.115410
             2    0       1.641099      9.817674     12.186165    -0.031231   -0.048280   -0.115410
 Energy
        -26.739941187352
END_CFG

BEGIN_CFG
 Size
     2
 AtomData:  id type       cartes_x      cartes_y      cartes_z           fx          fy          fz
             1    0      -0.199036     11.365494     14.121974    -0.100602    0.162559    0.482642
             2    0      -0.052137     11.128125     13.417221     0.100602   -0.162559   -0.482642
 Energy
        -26.735506779519
END_CFG

BEGIN_CFG
 Size
     2
 AtomData:  id type       cartes_x      cartes_y      cartes_z           fx          fy          fz
             1    0      -3.638841     10.538988     16.052024    -0.386621    0.026500    0.548794
             2    0      -4.101987     10.570733     16.709442     0.386621   -0.026500   -0.548794
 Energy
        -26.730531297682
END_CFG

BEGIN_CFG
 Size
     2
 AtomData:  id type       cartes_x      cartes_y      cartes_z           fx          fy          fz
             1    0      -3.799826     13.374588     19.627285    -0.577242   -1.052212   -1.422505
             2    0      -4.069813     12.882449     18.961953     0.577242    1.052212    1.422505
 Energy
        -26.645123908758
END_CFG

BEGIN_CFG
 Size
     2
 AtomData:  id type       cartes_x      cartes_y      cartes_z           fx          fy          fz
             1    0      -4.404139     16.212205     19.989760    -0.464727   -0.297424   -2.775622
             2    0      -4.289862     16.285343     20.672290     0.464727    0.297424    2.775622
 Energy
        -26.636768300002
END_CFG

