BEGIN_CFG
 Size
    27
 Supercell
         0.000000      5.415000      5.415000
         5.415000      0.000000      5.415000
         5.415000      5.415000      0.000000
 AtomData:  id type       cartes_x      cartes_y      cartes_z           fx          fy          fz
             1    0       0.000000      0.000000      0.000000    -0.000000   -0.000000   -0.000000
             2    0       1.805000      1.805000      0.000000     0.000000    0.000000   -0.000000
             3    0       3.610000      3.610000      0.000000    -0.000000   -0.000000   -0.000000
             4    0       1.805000      0.000000      1.805000     0.000000   -0.000000    0.000000
             5    0       3.610000      1.805000      1.805000    -0.000000    0.000000    0.000000
             6    0       5.415000      3.610000      1.805000    -0.000000    0.000000    0.000000
             7    0       3.610000      0.000000      3.610000    -0.000000   -0.000000   -0.000000
             8    0       5.415000      1.805000      3.610000    -0.000000    0.000000    0.000000
             9    0       7.220000      3.610000      3.610000     0.000000    0.000000    0.000000
            10    0       0.000000      1.805000      1.805000    -0.000000    0.000000    0.000000
            11    0       1.805000      3.610000      1.805000     0.000000   -0.000000    0.000000
            12    0       3.610000      5.415000      1.805000     0.000000   -0.000000    0.000000
            13    0       1.805000      1.805000      3.610000    -0.000000    0.000000   -0.000000
            14    0       3.610000      3.610000      3.610000    -0.000000    0.000000   -0.000000
            15    0       5.415000      5.415000      3.610000    -0.000000    0.000000    0.000000
            16    0       3.610000      1.805000      5.415000     0.000000    0.000000   -0.000000
            17    0       5.415000      3.610000      5.415000    -0.000000   -0.000000   -0.000000
            18    0       7.220000      5.415000      5.415000     0.000000   -0.000000   -0.000000
            19    0       0.000000      3.610000      3.610000    -0.000000   -0.000000   -0.000000
            20    0       1.805000      5.415000      3.610000     0.000000   -0.000000   -0.000000
            21    0       3.610000      7.220000      3.610000     0.000000   -0.000000    0.000000
            22    0       1.805000      3.610000      5.415000     0.000000    0.000000   -0.000000
            23    0       3.610000      5.415000      5.415000    -0.000000    0.000000   -0.000000
            24    0       5.415000      7.220000      5.415000    -0.000000    0.000000   -0.000000
            25    0       3.610000      3.610000      7.220000     0.000000    0.000000    0.000000
            26    0       5.415000      5.415000      7.220000    -0.000000   -0.000000    0.000000
            27    0       7.220000      7.220000      7.220000     0.000000    0.000000    0.000000
 Energy
         -0.155052853270
 PlusStress:  xx          yy          zz          yz          xz          xy
         7.09762     7.09762     7.09762    -0.00000    -0.00000    -0.00000
END_CFG

BEGIN_CFG
 Size
    27
 Supercell
         0.000000      5.415000      5.415000
         5.415000      0.000000      5.415000
         5.415000      5.415000      0.000000
 AtomData:  id type       cartes_x      cartes_y      cartes_z           fx          fy          fz
             1    0       0.005511     -0.018809      0.013573    -0.093526    0.185593   -0.119833
             2    0       1.822011      1.769714     -0.023551    -0.184555    0.210314    0.215562
             3    0       3.612312      3.604280     -0.000304     0.022539   -0.006312   -0.072501
             4    0       1.789572      0.015905      1.819067     0.100363   -0.117154   -0.019534
             5    0       3.611194      1.825387      1.813455     0.056864   -0.210318   -0.081244
             6    0       5.399459      3.616669      1.787658     0.129676   -0.066556    0.110489
             7    0       3.625888     -0.000903      3.606657    -0.060700    0.026102    0.036026
             8    0       5.402685      1.827111      3.607205     0.135053   -0.198674    0.027891
             9    0       7.212253      3.603631      3.619627     0.000847    0.076973   -0.113138
            10    0       0.006609      1.812465      1.812792    -0.087077    0.009382   -0.097705
            11    0       1.843734      3.602650      1.795736    -0.246494   -0.007167    0.072599
            12    0       3.595282      5.426141      1.825419     0.153508   -0.027624   -0.189498
            13    0       1.802939      1.789805      3.595088     0.089855    0.152932    0.208683
            14    0       3.621767      3.623443      3.619823    -0.054883   -0.096417    0.008854
            15    0       5.402964      5.419199      3.612110     0.026344   -0.061717   -0.011340
            16    0       3.613955      1.820761      5.419044    -0.021255   -0.136450   -0.015940
            17    0       5.427279      3.611222      5.420229    -0.023876   -0.037044    0.067166
            18    0       7.231417      5.388646      5.409218     0.001176    0.217275    0.009444
            19    0      -0.008507      3.598445      3.605024     0.120952    0.027066    0.025633
            20    0       1.832038      5.399341      3.627512    -0.320025   -0.013424   -0.133998
            21    0       3.579564      7.213943      3.612944     0.258224    0.074642   -0.028122
            22    0       1.815602      3.622863      5.429348    -0.133125   -0.188470   -0.086879
            23    0       3.603693      5.406638      5.430517     0.135853    0.044834    0.048199
            24    0       5.411540      7.196928      5.394503     0.070195    0.116502    0.151514
            25    0       3.593371      3.618992      7.222576     0.099801   -0.044805    0.055878
            26    0       5.427488      5.407273      7.222867     0.027127    0.044882    0.028398
            27    0       7.231314      7.214405      7.228261    -0.202862    0.025637   -0.096602
 Energy
         -0.098224614988
 PlusStress:  xx          yy          zz          yz          xz          xy
         7.30229     7.33668     7.31470     0.03500    -0.01980    -0.03270
END_CFG

BEGIN_CFG
 Size
    27
 Supercell
         0.000000      5.415000      5.415000
         5.415000      0.000000      5.415000
         5.415000      5.415000      0.000000
 AtomData:  id type       cartes_x      cartes_y      cartes_z           fx          fy          fz
             1    0       0.010670     -0.036919      0.026694    -0.178136    0.367081   -0.242052
             2    0       1.838319      1.735223     -0.046286    -0.386154    0.428307    0.452949
             3    0       3.614714      3.598537     -0.000882     0.049549   -0.021509   -0.163433
             4    0       1.774518      0.031368      1.833060     0.199607   -0.249098   -0.060927
             5    0       3.612608      1.844980      1.821605     0.119396   -0.431343   -0.156677
             6    0       5.384409      3.623086      1.770731     0.250560   -0.133420    0.237214
             7    0       3.641549     -0.001705      3.603450    -0.117881    0.054111    0.070238
             8    0       5.390878      1.848471      3.604515     0.253912   -0.367832    0.050300
             9    0       7.204505      3.597552      3.628827     0.007297    0.143125   -0.222781
            10    0       0.012891      1.819966      1.820215    -0.177073    0.014040   -0.195090
            11    0       1.881531      3.595271      1.786744    -0.502178    0.003599    0.149476
            12    0       3.581147      5.437179      1.845118     0.311446   -0.062920   -0.377776
            13    0       1.801212      1.775186      3.580964     0.173337    0.300680    0.414980
            14    0       3.633329      3.636516      3.629682    -0.100287   -0.192836    0.013306
            15    0       5.391031      5.423169      3.614181     0.056545   -0.125515   -0.031966
            16    0       3.617834      1.836008      5.423029    -0.040319   -0.258249   -0.027863
            17    0       5.439468      3.612303      5.425712    -0.057286   -0.070296    0.128497
            18    0       7.242834      5.363113      5.403474    -0.001108    0.430356    0.021122
            19    0      -0.016558      3.586991      3.600143     0.221636    0.056121    0.060060
            20    0       1.857859      5.383632      3.644518    -0.623435   -0.056568   -0.276456
            21    0       3.550108      7.208171      3.615780     0.542139    0.160939   -0.061812
            22    0       1.825698      3.635011      5.443371    -0.259313   -0.360786   -0.158015
            23    0       3.597904      5.398446      5.446220     0.284819    0.088208    0.095672
            24    0       5.408347      7.174294      5.374578     0.122614    0.232521    0.299917
            25    0       3.577124      3.627814      7.225362     0.198254   -0.090710    0.122160
            26    0       5.440079      5.399716      7.225841     0.051651    0.083882    0.050220
            27    0       7.241859      7.208907      7.236155    -0.399594    0.058111   -0.191263
 Energy
          0.066811129446
 PlusStress:  xx          yy          zz          yz          xz          xy
         7.88576     8.02693     7.94467     0.13619    -0.07675    -0.12584
END_CFG

BEGIN_CFG
 Size
    27
 Supercell
         0.000000      5.415000      5.415000
         5.415000      0.000000      5.415000
         5.415000      5.415000      0.000000
 AtomData:  id type       cartes_x      cartes_y      cartes_z           fx          fy          fz
             1    0       0.015156     -0.053646      0.038904    -0.250366    0.540162   -0.363817
             2    0       1.853156      1.702357     -0.067301    -0.597471    0.646415    0.704138
             3    0       3.617315      3.592714     -0.002080     0.078622   -0.043377   -0.265743
             4    0       1.760212      0.045892      1.846824     0.293104   -0.390729   -0.123927
             5    0       3.614484      1.862941      1.829163     0.186905   -0.656357   -0.222245
             6    0       5.370307      3.629000      1.754700     0.359173   -0.199901    0.375307
             7    0       3.656773     -0.002302      3.600510    -0.170276    0.081995    0.101257
             8    0       5.380028      1.868439      3.602012     0.356517   -0.509642    0.069110
             9    0       7.196775      3.592013      3.637184     0.019011    0.196156   -0.324728
            10    0       0.018503      1.827523      1.826904    -0.263562    0.012040   -0.286461
            11    0       1.917418      3.587904      1.778316    -0.757924    0.034173    0.227554
            12    0       3.568197      5.447984      1.863378     0.464516   -0.106778   -0.557482
            13    0       1.800130      1.761698      3.568404     0.247768    0.441853    0.612563
            14    0       3.644522      3.648850      3.639594    -0.137038   -0.287610    0.012375
            15    0       5.379318      5.426674      3.616139     0.091835   -0.188224   -0.061533
            16    0       3.621568      1.850286      5.426911    -0.056711   -0.362516   -0.035427
            17    0       5.451440      3.613116      5.431682    -0.097947   -0.098639    0.180588
            18    0       7.254236      5.339205      5.397813    -0.006925    0.632140    0.035813
            19    0      -0.023778      3.575746      3.595485     0.302168    0.087498    0.100875
            20    0       1.881306      5.367711      3.660474    -0.897752   -0.118074   -0.420258
            21    0       3.522719      7.203016      3.618381     0.834937    0.252061   -0.102116
            22    0       1.834808      3.645786      5.456800    -0.375609   -0.512726   -0.214644
            23    0       3.593208      5.390589      5.462293     0.435124    0.129235    0.136139
            24    0       5.405616      7.152534      5.355781     0.160199    0.346905    0.443030
            25    0       3.561638      3.636294      7.228609     0.292306   -0.138259    0.194851
            26    0       5.452861      5.392475      7.229000     0.071410    0.115795    0.065938
            27    0       7.250888      7.203629      7.243319    -0.582017    0.096402   -0.281155
 Energy
          0.320523191456
 PlusStress:  xx          yy          zz          yz          xz          xy
         8.75664     9.07700     8.90767     0.29043    -0.16446    -0.26471
END_CFG

BEGIN_CFG
 Size
    27
 Supercell
         0.000000      5.415000      5.415000
         5.415000      0.000000      5.415000
         5.415000      5.415000      0.000000
 AtomData:  id type       cartes_x      cartes_y      cartes_z           fx          fy          fz
             1    0       0.018694     -0.068340      0.049747    -0.308035    0.698629   -0.479745
             2    0       1.865711      1.671948     -0.085636    -0.803245    0.852485    0.951517
             3    0       3.620229      3.586732     -0.004290     0.105980   -0.068928   -0.368536
             4    0       1.747003      0.058941      1.860123     0.375999   -0.533405   -0.203443
             5    0       3.617083      1.878414      1.835884     0.255539   -0.874698   -0.275379
             6    0       5.357564      3.634162      1.740086     0.452264   -0.263682    0.516375
             7    0       3.671364     -0.002590      3.597951    -0.216870    0.107783    0.127906
             8    0       5.370521      1.886476      3.599767     0.443843   -0.627655    0.086412
             9    0       7.189104      3.587219      3.644312     0.035024    0.235037   -0.414549
            10    0       0.023116      1.835131      1.832518    -0.338860    0.001107   -0.365587
            11    0       1.950420      3.580664      1.770746    -1.000094    0.082650    0.301767
            12    0       3.557019      5.458391      1.879512     0.601711   -0.157994   -0.719997
            13    0       1.799970      1.749874      3.558155     0.310178    0.572840    0.792179
            14    0       3.655210      3.660078      3.649561    -0.167142   -0.378416    0.005492
            15    0       5.367960      5.429482      3.617880     0.133391   -0.245673   -0.098086
            16    0       3.625101      1.863206      5.430662    -0.070345   -0.447883   -0.038613
            17    0       5.463039      3.613554      5.438337    -0.142178   -0.120961    0.220112
            18    0       7.265595      5.317684      5.392289    -0.015994    0.814898    0.053621
            19    0      -0.029868      3.564825      3.591199     0.364125    0.121435    0.145513
            20    0       1.901321      5.351346      3.674832    -1.128663   -0.179954   -0.555356
            21    0       3.498523      7.198831      3.620591     1.111036    0.337154   -0.146557
            22    0       1.842490      3.654610      5.469424    -0.477650   -0.639563   -0.258405
            23    0       3.590187      5.383224      5.478897     0.570540    0.167594    0.161877
            24    0       5.403486      7.132074      5.338649     0.186659    0.457325    0.578201
            25    0       3.547277      3.644252      7.232592     0.378525   -0.187882    0.268294
            26    0       5.465908      5.385668      7.232402     0.084676    0.139914    0.076775
            27    0       7.257710      7.198714      7.249412    -0.740415    0.137842   -0.361787
 Energy
          0.628665667162
 PlusStress:  xx          yy          zz          yz          xz          xy
         9.77693    10.34111    10.06426     0.47530    -0.27046    -0.43291
END_CFG

BEGIN_CFG
 Size
    27
 Supercell
         0.000000      5.415000      5.415000
         5.415000      0.000000      5.415000
         5.415000      5.415000      0.000000
 AtomData:  id type       cartes_x      cartes_y      cartes_z           fx          fy          fz
             1    0       0.021061     -0.080402      0.058783    -0.350267    0.834326   -0.582339
             2    0       1.875196      1.644788     -0.100340    -0.980133    1.030424    1.167782
             3    0       3.623566      3.580496     -0.007905     0.126778   -0.094843   -0.458117
             4    0       1.735205      0.069971      1.872658     0.443740   -0.664916   -0.289535
             5    0       3.620672      1.890565      1.841566     0.317396   -1.071219   -0.315267
             6    0       5.346534      3.638332      1.727427     0.526565   -0.320175    0.648693
             7    0       3.685150     -0.002474      3.595872    -0.257063    0.129683    0.149184
             8    0       5.362687      1.902129      3.597848     0.515627   -0.724422    0.104674
             9    0       7.181546      3.583322      3.649869     0.054024    0.260054   -0.487494
            10    0       0.026442      1.842752      1.836762    -0.395242   -0.021140   -0.425930
            11    0       1.979610      3.573735      1.764318    -1.211806    0.142301    0.366814
            12    0       3.548140      5.468207      1.892892     0.711607   -0.212894   -0.855853
            13    0       1.800966      1.740209      3.550900     0.357358    0.687500    0.941934
            14    0       3.665288      3.669849      3.659561    -0.193297   -0.462127   -0.007355
            15    0       5.357114      5.431382      3.619274     0.182017   -0.292807   -0.137799
            16    0       3.628385      1.874453      5.434271    -0.081378   -0.514035   -0.037685
            17    0       5.474094      3.613537      5.445828    -0.185697   -0.135829    0.243861
            18    0       7.276871      5.299242      5.386970    -0.027873    0.970403    0.073742
            19    0      -0.034599      3.554356      3.587446     0.410766    0.157718    0.190018
            20    0       1.917014      5.334301      3.687069    -1.300334   -0.221318   -0.669289
            21    0       3.478587      7.195948      3.622238     1.338766    0.402396   -0.188170
            22    0       1.848358      3.660993      5.481075    -0.560341   -0.737115   -0.290931
            23    0       3.589368      5.376497      5.496134     0.672707    0.203183    0.164792
            24    0       5.402053      7.113326      5.323685     0.206262    0.560634    0.701609
            25    0       3.534374      3.651503      7.237588     0.453286   -0.239532    0.335484
            26    0       5.479264      5.379382      7.236086     0.090283    0.155639    0.084193
            27    0       7.261723      7.194318      7.254126    -0.863750    0.178109   -0.427014
 Energy
          0.945433037538
 PlusStress:  xx          yy          zz          yz          xz          xy
        10.77872    11.63220    11.23685     0.66060    -0.38022    -0.60031
END_CFG

BEGIN_CFG
 Size
    27
 Supercell
         0.000000      5.415000      5.415000
         5.415000      0.000000      5.415000
         5.415000      5.415000      0.000000
 AtomData:  id type       cartes_x      cartes_y      cartes_z           fx          fy          fz
             1    0       0.022094     -0.089318      0.065626    -0.377412    0.936922   -0.662202
             2    0       1.880929      1.621563     -0.110578    -1.102274    1.164765    1.322240
             3    0       3.627408      3.573912     -0.013272     0.135982   -0.116903   -0.518996
             4    0       1.725075      0.078482      1.884104     0.492878   -0.770802   -0.368875
             5    0       3.625493      1.898640      1.846058     0.362103   -1.228295   -0.342781
             6    0       5.337500      3.641300      1.717228     0.579078   -0.363219    0.758705
             7    0       3.697982     -0.001877      3.594351    -0.290559    0.146280    0.164270
             8    0       5.356798      1.915027      3.596324     0.571315   -0.801285    0.125589
             9    0       7.174172      3.580421      3.653577     0.074533    0.272490   -0.538608
            10    0       0.028263      1.850307      1.839411    -0.425675   -0.056597   -0.462037
            11    0       2.004176      3.567345      1.759281    -1.373508    0.201314    0.416257
            12    0       3.541985      5.477221      1.902993     0.783990   -0.266725   -0.956829
            13    0       1.803297      1.733141      3.547209     0.386901    0.777380    1.047886
            14    0       3.674658      3.677837      3.669549    -0.218812   -0.535424   -0.025523
            15    0       5.346965      5.432197      3.620177     0.237690   -0.324137   -0.175048
            16    0       3.631384      1.883783      5.437742    -0.090125   -0.561121   -0.033127
            17    0       5.484436      3.613008      5.454248    -0.223666   -0.142096    0.248926
            18    0       7.288016      5.284465      5.381932    -0.042255    1.090454    0.094530
            19    0      -0.037799      3.544473      3.584388     0.445451    0.195477    0.231015
            20    0       1.927716      5.316417      3.696745    -1.399982   -0.221965   -0.749397
            21    0       3.463794      7.194621      3.623160     1.486782    0.433761   -0.216894
            22    0       1.852096      3.664558      5.491630    -0.618179   -0.800677   -0.313252
            23    0       3.591151      5.370543      5.514021     0.725122    0.235363    0.138360
            24    0       5.401389      7.096676      5.311354     0.222691    0.651827    0.808276
            25    0       3.523219      3.657850      7.243854     0.513158   -0.292264    0.388635
            26    0       5.492947      5.373674      7.240078     0.086611    0.163083    0.089423
            27    0       7.262458      7.190592      7.257211    -0.941837    0.212394   -0.470544
 Energy
          1.220871065018
 PlusStress:  xx          yy          zz          yz          xz          xy
        11.60244    12.75868    12.23939     0.81705    -0.47436    -0.73635
END_CFG

BEGIN_CFG
 Size
    27
 Supercell
         0.000000      5.415000      5.415000
         5.415000      0.000000      5.415000
         5.415000      5.415000      0.000000
 AtomData:  id type       cartes_x      cartes_y      cartes_z           fx          fy          fz
             1    0       0.021686     -0.094697      0.069971    -0.391017    0.996459   -0.710217
             2    0       1.882439      1.602790     -0.115751    -1.147345    1.243968    1.388760
             3    0       3.631793      3.566901     -0.020626     0.129449   -0.130990   -0.537657
             4    0       1.716799      0.084071      1.894161     0.521737   -0.837172   -0.427873
             5    0       3.631721      1.902034      1.849256     0.378570   -1.328134   -0.359691
             6    0       5.330663      3.642902      1.709911     0.607494   -0.386754    0.833244
             7    0       3.709735     -0.000738      3.593443    -0.317666    0.156228    0.172536
             8    0       5.353069      1.924874      3.595278     0.610149   -0.858824    0.150193
             9    0       7.167056      3.578566      3.655242     0.095045    0.274494   -0.563651
            10    0       0.028459      1.857664      1.840330    -0.426022   -0.105889   -0.469700
            11    0       2.023500      3.561720      1.755824    -1.467258    0.245951    0.445056
            12    0       3.538832      5.485229      1.909422     0.811737   -0.314100   -1.016566
            13    0       1.807076      1.729011      3.547485     0.397145    0.833395    1.097406
            14    0       3.683226      3.683757      3.679457    -0.246250   -0.594355   -0.047844
            15    0       5.337723      5.431813      3.620454     0.299121   -0.334690   -0.203149
            16    0       3.634065      1.891025      5.441092    -0.096727   -0.590070   -0.025579
            17    0       5.493919      3.611945      5.463620    -0.252277   -0.138364    0.232947
            18    0       7.298971      5.273809      5.377252    -0.058764    1.168446    0.114265
            19    0      -0.039338      3.535317      3.582175     0.471119    0.233060    0.265118
            20    0       1.933041      5.297692      3.703549    -1.421480   -0.168678   -0.786063
            21    0       3.454720      7.194973      3.623247     1.532656    0.420960   -0.223737
            22    0       1.853485      3.665060      5.501003    -0.646510   -0.826561   -0.326090
            23    0       3.595745      5.365486      5.532458     0.717597    0.262136    0.079887
            24    0       5.401551      7.082467      5.302057     0.238079    0.725412    0.892457
            25    0       3.514045      3.663094      7.251591     0.555423   -0.344063    0.420236
            26    0       5.506940      5.368570      7.244397     0.072309    0.162216    0.093091
            27    0       7.259616      7.187664      7.258501    -0.966315    0.235917   -0.487379
 Energy
          1.411940956817
 PlusStress:  xx          yy          zz          yz          xz          xy
        12.12169    13.56001    12.91667     0.92043    -0.53447    -0.81001
END_CFG

BEGIN_CFG
 Size
    27
 Supercell
         0.000000      5.415000      5.415000
         5.415000      0.000000      5.415000
         5.415000      5.415000      0.000000
 AtomData:  id type       cartes_x      cartes_y      cartes_z           fx          fy          fz
             1    0       0.019784     -0.096313      0.071636    -0.392628    1.005326   -0.719874
             2    0       1.879555      1.588773     -0.115601    -1.104784    1.264935    1.356094
             3    0       3.636694      3.559410     -0.030040     0.105061   -0.133158   -0.505434
             4    0       1.710486      0.086484      1.902605     0.530740   -0.854239   -0.456517
             5    0       3.639420      1.900363      1.851095     0.358938   -1.357262   -0.367458
             6    0       5.326132      3.643049      1.705760     0.609951   -0.386249    0.862773
             7    0       3.720304      0.000978      3.593179    -0.339210    0.158325    0.173558
             8    0       5.351649      1.931450      3.594802     0.631355   -0.897016    0.178633
             9    0       7.160276      3.577769      3.654766     0.114573    0.268462   -0.559291
            10    0       0.027026      1.864639      1.839492    -0.396089   -0.167740   -0.446590
            11    0       2.037224      3.557032      1.754060    -1.481482    0.264229    0.450430
            12    0       3.538789      5.492048      1.911949     0.792226   -0.350741   -1.031923
            13    0       1.812344      1.728031      3.551918     0.388089    0.848867    1.082714
            14    0       3.690887      3.687382      3.689203    -0.277088   -0.635082   -0.072871
            15    0       5.329622      5.430192      3.620002     0.363449   -0.321110   -0.215523
            16    0       3.636404      1.896073      5.444350    -0.101405   -0.601572   -0.015772
            17    0       5.502434      3.610364      5.473884    -0.269350   -0.123453    0.194628
            18    0       7.309674      5.267571      5.373005    -0.077298    1.199653    0.131080
            19    0      -0.039121      3.527032      3.580933     0.489724    0.268063    0.289182
            20    0       1.932903      5.278333      3.707339    -1.366853   -0.060400   -0.775403
            21    0       3.451541      7.196956      3.622472     1.470508    0.360656   -0.205804
            22    0       1.852417      3.662398      5.509143    -0.642931   -0.813180   -0.330257
            23    0       3.603121      5.361429      5.551223     0.649427    0.279802   -0.008185
            24    0       5.402599      7.070974      5.296113     0.253082    0.775898    0.948151
            25    0       3.507013      3.667040      7.260921     0.578801   -0.391870    0.423977
            26    0       5.521189      5.364066      7.249057     0.045938    0.153087    0.094964
            27    0       7.253104      7.185619      7.257932    -0.932743    0.245769   -0.475282
 Energy
          1.493668263089
 PlusStress:  xx          yy          zz          yz          xz          xy
        12.27211    13.94137    13.18203     0.95431    -0.55117    -0.79569
END_CFG

BEGIN_CFG
 Size
    27
 Supercell
         0.000000      5.415000      5.415000
         5.415000      0.000000      5.415000
         5.415000      5.415000      0.000000
 AtomData:  id type       cartes_x      cartes_y      cartes_z           fx          fy          fz
             1    0       0.016382     -0.094128      0.070585    -0.383254    0.960609   -0.689098
             2    0       1.872443      1.579589     -0.110255    -0.979427    1.233928    1.232432
             3    0       3.642018      3.551435     -0.041391     0.063292   -0.120069   -0.420710
             4    0       1.706169      0.085658      1.909327     0.522255   -0.819296   -0.451534
             5    0       3.648512      1.893515      1.851547     0.301923   -1.310215   -0.366111
             6    0       5.323917      3.641744      1.704890     0.585566   -0.360758    0.843743
             7    0       3.729605      0.003279      3.593563    -0.356284    0.151654    0.167123
             8    0       5.352622      1.934606      3.595006     0.634253   -0.915422    0.209946
             9    0       7.153905      3.578008      3.652167     0.132512    0.256234   -0.523973
            10    0       0.024074      1.871000      1.836984    -0.339413   -0.238794   -0.392924
            11    0       2.045299      3.553350      1.754011    -1.414766    0.249862    0.432461
            12    0       3.541779      5.497537      1.910513     0.728009   -0.374814   -1.003410