BEGIN_CFG
 Size
     4
 Supercell
         3.610000      0.000000      0.000000
         0.000000      3.610000      0.000000
         0.000000      0.000000      3.610000
 AtomData:  id type       cartes_x      cartes_y      cartes_z           fx          fy          fz
             1    0       0.000000      0.000000      0.000000     0.000000    0.000000    0.000000
             2    0       0.000000      1.805000      1.805000     0.000000   -0.000000   -0.000000
             3    0       1.805000      0.000000      1.805000    -0.000000    0.000000   -0.000000
             4    0       1.805000      1.805000      0.000000     0.000000    0.000000   -0.000000
 Energy
         -0.022726045434
 PlusStress:  xx          yy          zz          yz          xz          xy
        -0.64073    -0.64073    -0.64073     0.00000     0.00000     0.00000
END_CFG

BEGIN_CFG
 Size
     4
 Supercell
         3.610000      0.000000      0.000000
         0.000000      3.610000      0.000000
         0.000000      0.000000      3.610000
 AtomData:  id type       cartes_x      cartes_y      cartes_z           fx          fy          fz
             1    0       0.005511     -0.018809      0.013573    -0.099631    0.068677   -0.202694
             2    0       0.017011      1.769714      1.781449    -0.185126    0.169184    0.291272
             3    0       1.807312     -0.005720      1.804696     0.076079   -0.028045    0.118424
             4    0       1.789572      1.820905      0.014067     0.208679   -0.209816   -0.207002
 Energy
         -0.007890613014
 PlusStress:  xx          yy          zz          yz          xz          xy
        -0.57061    -0.58014    -0.58873     0.01495    -0.02772    -0.02218
END_CFG

BEGIN_CFG
 Size
     4
 Supercell
         3.610000      0.000000      0.000000
         0.000000      3.610000      0.000000
         0.000000      0.000000      3.610000
 AtomData:  id type       cartes_x      cartes_y      cartes_z           fx          fy          fz
             1    0       0.010644     -0.037358      0.026376    -0.197272    0.134362   -0.396252
             2    0       0.033319      1.735069      1.759003    -0.368472    0.336600    0.575466
             3    0       1.809913     -0.011546      1.804842     0.148061   -0.056349    0.228940
             4    0       1.774936      1.836013      0.027349     0.417683   -0.414613   -0.408154
 Energy
          0.034328736276
 PlusStress:  xx          yy          zz          yz          xz          xy
        -0.37214    -0.40892    -0.44300     0.05651    -0.10562    -0.08420
END_CFG

BEGIN_CFG
 Size
     4
 Supercell
         3.610000      0.000000      0.000000
         0.000000      3.610000      0.000000
         0.000000      0.000000      3.610000
 AtomData:  id type       cartes_x      cartes_y      cartes_z           fx          fy          fz
             1    0       0.015028     -0.055396      0.037675    -0.288909    0.194288   -0.570726
             2    0       0.048229      1.701703      1.738742    -0.544121    0.499428    0.841927
             3    0       1.813076     -0.017586      1.805856     0.210871   -0.085045    0.323156
             4    0       1.761885      1.849548      0.039081     0.622159   -0.608671   -0.594357
 Energy
          0.097149667943
 PlusStress:  xx          yy          zz          yz          xz          xy
        -0.07951    -0.15743    -0.23271     0.11547    -0.21859    -0.17335
END_CFG

BEGIN_CFG
 Size
     4
 Supercell
         3.610000      0.000000      0.000000
         0.000000      3.610000      0.000000
         0.000000      0.000000      3.610000
 AtomData:  id type       cartes_x      cartes_y      cartes_z           fx          fy          fz
             1    0       0.018316     -0.072697      0.046808    -0.367305    0.246127   -0.715139
             2    0       0.061073      1.670232      1.721677    -0.699920    0.653273    1.074728
             3    0       1.817039     -0.023948      1.808098     0.258046   -0.113982    0.392196
             4    0       1.751196      1.860772      0.048557     0.809178   -0.785418   -0.751786
 Energy
          0.169806178530
 PlusStress:  xx          yy          zz          yz          xz          xy
         0.25586     0.12850    -0.00064     0.17883    -0.34394    -0.27119
END_CFG

BEGIN_CFG
 Size
     4
 Supercell
         3.610000      0.000000      0.000000
         0.000000      3.610000      0.000000
         0.000000      0.000000      3.610000
 AtomData:  id type       cartes_x      cartes_y      cartes_z           fx          fy          fz
             1    0       0.020209     -0.089064      0.053226    -0.422283    0.288168   -0.818236
             2    0       0.071261      1.641241      1.708691    -0.818840    0.792402    1.254186
             3    0       1.821982     -0.030744      1.811828     0.282248   -0.142547    0.427476
             4    0       1.743579      1.869015      0.055179     0.958875   -0.938022   -0.863426
 Energy
          0.239075884722
 PlusStress:  xx          yy          zz          yz          xz          xy
         0.57456     0.39547     0.20577     0.23256    -0.45574    -0.35706
END_CFG

BEGIN_CFG
 Size
     4
 Supercell
         3.610000      0.000000      0.000000
         0.000000      3.610000      0.000000
         0.000000      0.000000      3.610000
 AtomData:  id type       cartes_x      cartes_y      cartes_z           fx          fy          fz
             1    0       0.020499     -0.104337      0.056538    -0.442723    0.319455   -0.870097
             2    0       0.078340      1.615258      1.700466    -0.883777    0.910548    1.361511
             3    0       1.827996     -0.038080      1.817181     0.276714   -0.169580    0.422120
             4    0       1.739601      1.873697      0.058524     1.049786   -1.060424   -0.913534
 Energy
          0.292083933413
 PlusStress:  xx          yy          zz          yz          xz          xy
         0.82183     0.59384     0.34572     0.26421    -0.53059    -0.41172
END_CFG

BEGIN_CFG
 Size
     4
 Supercell
         3.610000      0.000000      0.000000
         0.000000      3.610000      0.000000
         0.000000      0.000000      3.610000
 AtomData:  id type       cartes_x      cartes_y      cartes_z           fx          fy          fz
             1    0       0.019109     -0.118397      0.056548    -0.419736    0.339836   -0.864099
             2    0       0.082064      1.592731      1.697409    -0.883733    1.001968    1.384678
             3    0       1.835061     -0.046060      1.824136     0.237120   -0.193490    0.372544
             4    0       1.739609      1.874354      0.058401     1.066349   -1.148313   -0.893123
 Energy
          0.319736986791
 PlusStress:  xx          yy          zz          yz          xz          xy
         0.96031     0.68989     0.39541     0.26488    -0.55311    -0.42079
END_CFG

BEGIN_CFG
 Size
     4
 Supercell
         3.610000      0.000000      0.000000
         0.000000      3.610000      0.000000
         0.000000      0.000000      3.610000
 AtomData:  id type       cartes_x      cartes_y      cartes_z           fx          fy          fz
             1    0       0.016125     -0.131167      0.053277    -0.349780    0.349804   -0.798473
             2    0       0.082434      1.574007      1.699608    -0.818204    1.062466    1.322543
             3    0       1.843026     -0.054775      1.832505     0.163103   -0.212617    0.279506
             4    0       1.743664      1.870652      0.054888     1.004881   -1.199653   -0.803576
 Energy
          0.319319165019
 PlusStress:  xx          yy          zz          yz          xz          xy
         0.97824     0.67466     0.35360     0.23051    -0.51886    -0.37740
END_CFG

BEGIN_CFG
 Size
     4
 Supercell
         3.610000      0.000000      0.000000
         0.000000      3.610000      0.000000
         0.000000      0.000000      3.610000
 AtomData:  id type       cartes_x      cartes_y      cartes_z           fx          fy          fz
             1    0       0.011814     -0.142610      0.046976    -0.236334    0.350095   -0.676895
             2    0       0.079699      1.559317      1.706827    -0.697462    1.090193    1.185096
             3    0       1.851610     -0.064297      1.841935     0.058762   -0.225691    0.148208
             4    0       1.751533      1.862396      0.048325     0.875034   -1.214598   -0.656409
 Energy
          0.294896684134
 PlusStress:  xx          yy          zz          yz          xz          xy
         0.88984     0.56545     0.24039     0.16277    -0.43382    -0.28400
END_CFG

BEGIN_CFG
 Size
     4
 Supercell
         3.610000      0.000000      0.000000
         0.000000      3.610000      0.000000
         0.000000      0.000000      3.610000
 AtomData:  id type       cartes_x      cartes_y      cartes_z           fx          fy          fz
             1    0       0.006606     -0.152723      0.038105    -0.089457    0.341145   -0.507991
             2    0       0.074315      1.548765      1.718545    -0.538901    1.085869    0.989965
             3    0       1.860417     -0.074675      1.851928    -0.067959   -0.232205   -0.012484
             4    0       1.762724      1.849530      0.039270     0.696317   -1.194809   -0.469490
 Energy
          0.255326225097
 PlusStress:  xx          yy          zz          yz          xz          xy
         0.72823     0.39882     0.09001     0.06956    -0.31147    -0.15281
END_CFG

BEGIN_CFG
 Size
     4
 Supercell
         3.610000      0.000000      0.000000
         0.000000      3.610000      0.000000
         0.000000      0.000000      3.610000
 AtomData:  id type       cartes_x      cartes_y      cartes_z           fx          fy          fz
             1    0       0.001058     -0.161542      0.027305     0.076374    0.322738   -0.304109
             2    0       0.066886      1.542334      1.734021    -0.361654    1.052134    0.757229
             3    0       1.868966     -0.085935      1.861873    -0.206561   -0.232520   -0.191198
             4    0       1.776558      1.832128      0.028432     0.491841   -1.142353   -0.261922
 Energy
          0.210952750908
 PlusStress:  xx          yy          zz          yz          xz          xy
         0.53400     0.21824    -0.05949    -0.03550    -0.16938    -0.00414
END_CFG

BEGIN_CFG
 Size
     4
 Supercell
         3.610000      0.000000      0.000000
         0.000000      3.610000      0.000000
         0.000000      0.000000      3.610000
 AtomData:  id type       cartes_x      cartes_y      cartes_z           fx          fy          fz
             1    0      -0.004200     -0.169135      0.015352     0.245012    0.294126   -0.079940
             2    0       0.058085      1.539898      1.752371    -0.182044    0.992220    0.504995
             3    0       1.876730     -0.098078      1.871093    -0.345304   -0.227666   -0.375064
             4    0       1.792259      1.810390      0.016601     0.282335   -1.058680   -0.049991
 Energy
          0.170543634144
 PlusStress:  xx          yy          zz          yz          xz          xy
         0.34422     0.06131    -0.17640    -0.13516    -0.02663     0.13728
END_CFG

BEGIN_CFG
 Size
     4
 Supercell
         3.610000      0.000000      0.000000
         0.000000      3.610000      0.000000
         0.000000      0.000000      3.610000
 AtomData:  id type       cartes_x      cartes_y      cartes_z           fx          fy          fz
             1    0      -0.008528     -0.175612      0.003095     0.400971    0.254649    0.148620
             2    0       0.048592      1.541228      1.772638    -0.011287    0.908631    0.247214
             3    0       1.883185     -0.111084      1.878889    -0.472185   -0.218912   -0.550400
             4    0       1.809032      1.784634      0.004580     0.082501   -0.944367    0.154566
 Energy
          0.139506157134
 PlusStress:  xx          yy          zz          yz          xz          xy
         0.18498    -0.04881    -0.24219    -0.21188     0.09770     0.24742
END_CFG

BEGIN_CFG
 Size
     4
 Supercell
         3.610000      0.000000      0.000000
         0.000000      3.610000      0.000000
         0.000000      0.000000      3.610000
 AtomData:  id type       cartes_x      cartes_y      cartes_z           fx          fy          fz
             1    0      -0.011334     -0.181122     -0.008598     0.530986    0.204566    0.365392
             2    0       0.039056      1.546006      1.793843     0.144462    0.802608   -0.006112
             3    0       1.887846     -0.124922      1.884595    -0.575724   -0.207227   -0.703347
             4    0       1.826118      1.755293     -0.006854    -0.099724   -0.799948    0.344066
 Energy
          0.119577466223
 PlusStress:  xx          yy          zz          yz          xz          xy
         0.06881    -0.10610    -0.25392    -0.25172     0.18606     0.30811
END_CFG

BEGIN_CFG
 Size
     4
 Supercell
         3.610000      0.000000      0.000000
         0.000000      3.610000      0.000000
         0.000000      0.000000      3.610000
 AtomData:  id type       cartes_x      cartes_y      cartes_z           fx          fy          fz
             1    0      -0.012125     -0.185856     -0.018904     0.625023    0.145678    0.555011
             2    0       0.030069      1.553832      1.815025     0.282432    0.674633   -0.247173
             3    0       1.890323     -0.139546      1.887632    -0.645911   -0.192792   -0.820872
             4    0       1.842825      1.722915     -0.016983    -0.261545   -0.627518    0.513034
 Energy
          0.109567775645
 PlusStress:  xx          yy          zz          yz          xz          xy
        -0.00409    -0.11898    -0.22251    -0.24773     0.22484     0.31101
END_CFG

BEGIN_CFG
 Size
     4
 Supercell
         3.610000      0.000000      0.000000
         0.000000      3.610000      0.000000
         0.000000      0.000000      3.610000
 AtomData:  id type       cartes_x      cartes_y      cartes_z           fx          fy          fz
             1    0      -0.010542     -0.190037     -0.027103     0.677020    0.081368    0.704452
             2    0       0.022154      1.564218      1.835269     0.400858    0.525600   -0.468202
             3    0       1.890347     -0.154902      1.887553    -0.675522   -0.174764   -0.892246
             4    0       1.858540      1.688155     -0.025164    -0.402355   -0.432204    0.655996
 Energy
          0.106562936561
 PlusStress:  xx          yy          zz          yz          xz          xy
        -0.04217    -0.10458    -0.16802    -0.20185     0.20798     0.25933
END_CFG

BEGIN_CFG
 Size
     4
 Supercell
         3.610000      0.000000      0.000000
         0.000000      3.610000      0.000000
         0.000000      0.000000      3.610000
 AtomData:  id type       cartes_x      cartes_y      cartes_z           fx          fy          fz
             1    0      -0.006390     -0.193909     -0.032628     0.685292    0.016000    0.804702
             2    0       0.015760      1.576599      1.853736     0.496828    0.357950   -0.660004
             3    0       1.887808     -0.170922      1.884087    -0.661414   -0.151449   -0.910596
             4    0       1.872727      1.651755     -0.030854    -0.520706   -0.222500    0.765898
 Energy
          0.107122884546
 PlusStress:  xx          yy          zz          yz          xz          xy
        -0.05811    -0.08220    -0.11363    -0.12472     0.14010     0.16696
END_CFG

BEGIN_CFG
 Size
     4
 Supercell
         3.610000      0.000000      0.000000
         0.000000      3.610000      0.000000
         0.000000      0.000000      3.610000
 AtomData:  id type       cartes_x      cartes_y      cartes_z           fx          fy          fz
             1    0       0.000363     -0.197721     -0.035099     0.652236   -0.046099    0.851809
             2    0       0.011252      1.590339      1.869697     0.565301    0.176104   -0.811937
             3    0       1.882757     -0.187516      1.877164    -0.605055   -0.120949   -0.873825
             4    0       1.884938      1.614510     -0.033638    -0.612483   -0.009056    0.833953
 Energy
          0.108258272947
 PlusStress:  xx          yy          zz          yz          xz          xy
        -0.06416    -0.06759    -0.07955    -0.03332     0.03740     0.05518
END_CFG

BEGIN_CFG
 Size
     4
 Supercell
         3.610000      0.000000      0.000000
         0.000000      3.610000      0.000000
         0.000000      0.000000      3.610000
 AtomData:  id type       cartes_x      cartes_y      cartes_z           fx          fy          fz
             1    0       0.009592     -0.201707     -0.034336     0.583064   -0.101640    0.846647
             2    0       0.008891      1.604748      1.882577     0.599841   -0.013966   -0.913558
             3    0       1.875410     -0.204569      1.866925    -0.511729   -0.082071   -0.784362
             4    0       1.894824      1.577231     -0.033256    -0.671175    0.197678    0.851272
 Energy
          0.108170779241
 PlusStress:  xx          yy          zz          yz          xz          xy
        -0.06803    -0.06903    -0.07780     0.05287    -0.07546    -0.05181
END_CFG

BEGIN_CFG
 Size
     4
 Supercell
         3.610000      0.000000      0.000000
         0.000000      3.610000      0.000000
         0.000000      0.000000      3.610000
 AtomData:  id type       cartes_x      cartes_y      cartes_z           fx          fy          fz
             1    0       0.021034     -0.206079     -0.030359     0.483833   -0.148948    0.793370
             2    0       0.008806      1.619104      1.891988     0.594849   -0.205735   -0.957311
             3    0       1.866121     -0.221934      1.853708    -0.388564   -0.035119   -0.647825
             4    0       1.902162      1.540702     -0.029643    -0.690119    0.389802    0.811766
 Energy
          0.106782074028
 PlusStress:  xx          yy          zz          yz          xz          xy
        -0.06979    -0.08555    -0.10879     0.11580    -0.17160    -0.13134
END_CFG

BEGIN_CFG
 Size
     4
 Supercell
         3.610000      0.000000      0.000000
         0.000000      3.610000      0.000000
         0.000000      0.000000      3.610000
 AtomData:  id type       cartes_x      cartes_y      cartes_z           fx          fy          fz
             1    0       0.034313     -0.211017     -0.023371     0.359573   -0.187944    0.697312
             2    0       0.010979      1.632678      1.897766     0.548137   -0.393094   -0.940988
             3    0       1.855356     -0.239433      1.838032    -0.242269    0.017828   -0.471223
             4    0       1.906881      1.505653     -0.022948    -0.665441    0.563210    0.714899
 Energy
          0.105950435196
 PlusStress:  xx          yy          zz          yz          xz          xy
        -0.06085    -0.10714    -0.16051     0.14162    -0.22902    -0.16555
END_CFG

BEGIN_CFG
 Size
     4
 Supercell
         3.610000      0.000000      0.000000
         0.000000      3.610000      0.000000
         0.000000      0.000000      3.610000
 AtomData:  id type       cartes_x      cartes_y      cartes_z           fx          fy          fz
             1    0       0.048957     -0.216667     -0.013736     0.213351   -0.219579    0.563361
             2    0       0.015233      1.644761      1.899972     0.462404   -0.570955   -0.868641
             3    0       1.843672     -0.256863      1.820568    -0.077684    0.073281   -0.261523
             4    0       1.909073      1.472742     -0.013539    -0.598070    0.717252    0.566803
 Energy
          0.109159245507
 PlusStress:  xx          yy          zz          yz          xz          xy
        -0.02607    -0.11716    -0.21125     0.12212    -0.23514    -0.14353
END_CFG

BEGIN_CFG
 Size
     4
 Supercell
         3.610000      0.000000      0.000000
         0.000000      3.610000      0.000000
         0.000000      0.000000      3.610000
 AtomData:  id type       cartes_x      cartes_y      cartes_z           fx          fy          fz
             1    0       0.064411     -0.223152     -0.001962     0.046790   -0.244999    0.395555
             2    0       0.021241      1.654676      1.898880     0.345011   -0.735356   -0.749584
             3    0       1.831693     -0.274016      1.802110     0.102166    0.127194   -0.025225
             4    0       1.908996      1.442553     -0.001980    -0.493966    0.853161    0.379254
 Energy
          0.120546100643
 PlusStress:  xx          yy          zz          yz          xz          xy
         0.05099    -0.09674    -0.23550     0.05526    -0.18772    -0.06275
END_CFG

BEGIN_CFG
 Size
     4
 Supercell
         3.610000      0.000000      0.000000
         0.000000      3.610000      0.000000
         0.000000      0.000000      3.610000
 AtomData:  id type       cartes_x      cartes_y      cartes_z           fx          fy          fz
             1    0       0.080042     -0.230566      0.011313    -0.138044   -0.264736    0.198119
             2    0       0.028560      1.661800      1.894944     0.206577   -0.883132   -0.596222
             3    0       1.820102     -0.290685      1.783557     0.294436    0.175938    0.230796
             4    0       1.907043      1.415603      0.011020    -0.362969    0.971930    0.167307
 Energy
          0.143393972271
 PlusStress:  xx          yy          zz          yz          xz          xy
         0.18098    -0.03091    -0.21197    -0.05441    -0.09299     0.06998
END_CFG

BEGIN_CFG
 Size
     4
 Supercell
         3.610000      0.000000      0.000000
         0.000000      3.610000      0.000000
         0.000000      0.000000      3.610000
 AtomData:  id type       cartes_x      cartes_y      cartes_z           fx          fy          fz
             1    0       0.095149     -0.238986      0.025340    -0.335917   -0.278241   -0.022399
             2    0       0.036663      1.665571      1.888744     0.059447   -1.011187   -0.421942
             3    0       1.809629     -0.306687      1.765880     0.493775    0.217081    0.497376
             4    0       1.903712      1.392342      0.024655    -0.217305    1.072348   -0.053034
 Energy
          0.178443863500
 PlusStress:  xx          yy          zz          yz          xz          xy
         0.36189     0.08493    -0.13142    -0.19531     0.03675     0.23818
END_CFG

BEGIN_CFG
 Size
     4
 Supercell
         3.610000      0.000000      0.000000
         0.000000      3.610000      0.000000
         0.000000      0.000000      3.610000
 AtomData:  id type       cartes_x      cartes_y      cartes_z           fx          fy          fz
             1    0       0.108982     -0.248461      0.039282    -0.535840   -0.283968   -0.254687
             2    0       0.044991      1.665505      1.880942    -0.083369   -1.115611   -0.239880
             3    0       1.801030     -0.321865      1.750091     0.689584    0.249792    0.760839
             4    0       1.899557      1.373151      0.038088    -0.070375    1.149787   -0.266273
 Energy
          0.222537537066
 PlusStress:  xx          yy          zz          yz          xz          xy
         0.57469     0.24010    -0.00200    -0.34898     0.18457     0.41705
END_CFG

BEGIN_CFG
 Size
     4
 Supercell
         3.610000      0.000000      0.000000
         0.000000      3.610000      0.000000
         0.000000      0.000000      3.610000
 AtomData:  id type       cartes_x      cartes_y      cartes_z           fx          fy          fz
             1    0       0.120780     -0.259014      0.052257    -0.719983   -0.280035   -0.481222
             2    0       0.053003      1.661203      1.872230    -0.208961   -1.191111   -0.062508
             3    0       1.795048     -0.336094      1.737190     0.864666    0.274792    1.001833
             4    0       1.895135      1.358325      0.050510     0.064278    1.196354   -0.458103
 Energy
          0.268210420830
 PlusStress:  xx          yy          zz          yz          xz          xy
         0.78369     0.40775     0.15010    -0.49187     0.32968     0.57706
END_CFG

BEGIN_CFG
 Size
     4
 Supercell
         3.610000      0.000000      0.000000
         0.000000      3.610000      0.000000
         0.000000      0.000000      3.610000
 AtomData:  id type       cartes_x      cartes_y      cartes_z           fx          fy          fz
             1    0       0.129845     -0.270631      0.063405    -0.865586   -0.265240   -0.679350
             2    0       0.060222      1.652380      1.863280    -0.305576   -1.231363    0.098536
             3    0       1.792349     -0.349281      1.728092     0.996824    0.293779    1.196783
             4    0       1.890956      1.348041      0.061194     0.174338    1.202825   -0.615969
 Energy
          0.304845903467
 PlusStress:  xx          yy          zz          yz          xz          xy
         0.94294     0.54951     0.28612    -0.59922     0.44905     0.68974
END_CFG

BEGIN_CFG
 Size
     4
 Supercell
         3.610000      0.000000      0.000000
         0.000000      3.610000      0.000000
         0.000000      0.000000      3.610000
 AtomData:  id type       cartes_x      cartes_y      cartes_z           fx          fy          fz
             1    0       0.135625     -0.283254      0.071975    -0.950399   -0.239945   -0.825714
             2    0       0.066281      1.638883      1.854705    -0.364235   -1.230473    0.232975
             3    0       1.793433     -0.361352      1.723537     1.064090    0.308408    1.322670
             4    0       1.887440      1.342322      0.069539     0.250544    1.162010   -0.729932
 Energy
          0.321568436802
 PlusStress:  xx          yy          zz          yz          xz          xy
         1.00828     0.62553     0.36571    -0.65091     0.52152     0.73440
END_CFG

BEGIN_CFG
 Size
     4
 Supercell
         3.610000      0.000000      0.000000
         0.000000      3.610000      0.000000
         0.000000      0.000000      3.610000
 AtomData:  id type       cartes_x      cartes_y      cartes_z           fx          fy          fz
             1    0       0.137797     -0.296788      0.077411    -0.960071   -0.206332   -0.902881
             2    0       0.070957      1.620716      1.847014    -0.380533   -1.185056    0.332862
             3    0       1.798557     -0.372253      1.724003     1.052167    0.319162    1.363714
             4    0       1.884874      1.341014      0.075114     0.288437    1.072225   -0.793695
 Energy
          0.311068223369
 PlusStress:  xx          yy          zz          yz          xz          xy
         0.95133     0.60678     0.36007    -0.63717     0.53363     0.70364
END_CFG

BEGIN_CFG
 Size
     4
 Supercell
         3.610000      0.000000      0.000000
         0.000000      3.610000      0.000000
         0.000000      0.000000      3.610000
 AtomData:  id type       cartes_x      cartes_y      cartes_z           fx          fy          fz
             1    0       0.136324     -0.311105      0.079419    -0.893772   -0.167834   -0.904924
             2    0       0.074189      1.598050      1.840586    -0.355756   -1.095869    0.393565
             3    0       1.807674     -0.381942      1.729645     0.960433    0.324694    1.316567
             4    0       1.883403      1.343776      0.077676     0.289095    0.939009   -0.805208
 Energy
          0.272599417570
 PlusStress:  xx          yy          zz          yz          xz          xy
         0.77010     0.48509     0.26181    -0.56197     0.48479     0.60556
END_CFG

BEGIN_CFG
 Size
     4
 Supercell
         3.610000      0.000000      0.000000
         0.000000      3.610000      0.000000
         0.000000      0.000000      3.610000
 AtomData:  id type       cartes_x      cartes_y      cartes_z           fx          fy          fz
             1    0       0.131459     -0.326060      0.077993    -0.764534   -0.128059   -0.838594
             2    0       0.076070      1.571224      1.835653    -0.296546   -0.967996    0.414234
             3    0       1.820438     -0.390399      1.740284     0.802752    0.322100    1.190824
             4    0       1.883030      1.350102      0.077182     0.258328    0.773955   -0.766464
 Energy
          0.212511220321
 PlusStress:  xx          yy          zz          yz          xz          xy
         0.49103     0.27671     0.08736    -0.44205     0.38835     0.46149
END_CFG

BEGIN_CFG
 Size
     4
 Supercell
         3.610000      0.000000      0.000000
         0.000000      3.610000      0.000000
         0.000000      0.000000      3.610000
 AtomData:  id type       cartes_x      cartes_y      cartes_z           fx          fy          fz
             1    0       0.123692     -0.341500      0.073383    -0.593865   -0.089784   -0.719367
             2    0       0.076826      1.540724      1.832292    -0.213035   -0.809393    0.397466
             3    0       1.836248     -0.397633      1.755444     0.602248    0.308005    1.004457
             4    0       1.883637      1.359366      0.073778     0.204652    0.591172   -0.682555
 Energy
          0.142107439279
 PlusStress:  xx          yy          zz          yz          xz          xy
         0.16199     0.01827    -0.12851    -0.30214     0.26765     0.30053
END_CFG

BEGIN_CFG
 Size
     4
 Supercell
         3.610000      0.000000      0.000000
         0.000000      3.610000      0.000000
         0.000000      0.000000      3.610000
 AtomData:  id type       cartes_x      cartes_y      cartes_z           fx          fy          fz
             1    0       0.113671     -0.357281      0.066042    -0.403775   -0.054474   -0.564889
             2    0       0.076773      1.507151      1.830439    -0.116180   -0.628571    0.348382