BEGIN_CFG
 Size
    32
 Supercell
         7.220000      0.000000      0.000000
         0.000000      7.220000      0.000000
         0.000000      0.000000      7.220000
 AtomData:  id type       cartes_x      cartes_y      cartes_z           fx          fy          fz
             1    0       0.000000      0.000000      0.000000     0.000000    0.000000    0.000000
             2    0       0.000000      1.805000      1.805000     0.000000   -0.000000   -0.000000
             3    0       1.805000      0.000000      1.805000     0.000000    0.000000   -0.000000
             4    0       1.805000      1.805000      0.000000     0.000000   -0.000000    0.000000
             5    0       0.000000      0.000000      3.610000     0.000000    0.000000   -0.000000
             6    0       0.000000      1.805000      5.415000     0.000000   -0.000000   -0.000000
             7    0       1.805000      0.000000      5.415000     0.000000    0.000000   -0.000000
             8    0       1.805000      1.805000      3.610000     0.000000   -0.000000   -0.000000
             9    0       0.000000      3.610000      0.000000     0.000000   -0.000000    0.000000
            10    0       0.000000      5.415000      1.805000     0.000000   -0.000000   -0.000000
            11    0       1.805000      3.610000      1.805000     0.000000   -0.000000   -0.000000
            12    0       1.805000      5.415000      0.000000     0.000000   -0.000000    0.000000
            13    0       0.000000      3.610000      3.610000     0.000000   -0.000000   -0.000000
            14    0       0.000000      5.415000      5.415000     0.000000    0.000000   -0.000000
            15    0       1.805000      3.610000      5.415000     0.000000   -0.000000   -0.000000
            16    0       1.805000      5.415000      3.610000     0.000000   -0.000000   -0.000000
            17    0       3.610000      0.000000      0.000000     0.000000    0.000000    0.000000
            18    0       3.610000      1.805000      1.805000    -0.000000    0.000000   -0.000000
            19    0       5.415000      0.000000      1.805000    -0.000000    0.000000    0.000000
            20    0       5.415000      1.805000      0.000000    -0.000000    0.000000    0.000000
            21    0       3.610000      0.000000      3.610000     0.000000    0.000000   -0.000000
            22    0       3.610000      1.805000      5.415000    -0.000000    0.000000   -0.000000
            23    0       5.415000      0.000000      5.415000    -0.000000    0.000000   -0.000000
            24    0       5.415000      1.805000      3.610000    -0.000000    0.000000   -0.000000
            25    0       3.610000      3.610000      0.000000     0.000000   -0.000000    0.000000
            26    0       3.610000      5.415000      1.805000     0.000000   -0.000000   -0.000000
            27    0       5.415000      3.610000      1.805000    -0.000000   -0.000000   -0.000000
            28    0       5.415000      5.415000      0.000000    -0.000000   -0.000000    0.000000
            29    0       3.610000      3.610000      3.610000     0.000000   -0.000000   -0.000000
            30    0       3.610000      5.415000      5.415000     0.000000    0.000000   -0.000000
            31    0       5.415000      3.610000      5.415000    -0.000000   -0.000000   -0.000000
            32    0       5.415000      5.415000      3.610000    -0.000000   -0.000000    0.000000
 Energy
         -0.181534380185
 PlusStress:  xx          yy          zz          yz          xz          xy
        -5.09751    -5.09751    -5.09751     0.00000    -0.00000    -0.00000
END_CFG

BEGIN_CFG
 Size
    32
 Supercell
         7.220000      0.000000      0.000000
         0.000000      7.220000      0.000000
         0.000000      0.000000      7.220000
 AtomData:  id type       cartes_x      cartes_y      cartes_z           fx          fy          fz
             1    0       0.005511     -0.018809      0.013573    -0.028948    0.090509   -0.172275
             2    0       0.017011      1.769714      1.781449    -0.084110    0.208148    0.209741
             3    0       1.807312     -0.005720      1.804696     0.056301    0.035473    0.032489
             4    0       1.789572      1.820905      0.014067     0.113094   -0.172570   -0.198054
             5    0       0.001194      0.020387      3.618455    -0.028716   -0.181928   -0.032489
             6    0      -0.015541      1.811669      5.397658     0.092417   -0.098671    0.172893
             7    0       1.820888     -0.000903      5.411657    -0.113948    0.149012    0.132800
             8    0       1.792685      1.827111      3.607205     0.127498   -0.146048    0.013482
             9    0      -0.007747      3.603631      0.009627     0.051088    0.099102   -0.011579
            10    0       0.006609      5.422465      1.812792    -0.025075   -0.092083    0.012492
            11    0       1.843734      3.602650      1.795736    -0.304293    0.071157    0.081974
            12    0       1.790282      5.426141      0.020419     0.143098   -0.090181   -0.115387
            13    0      -0.002061      3.594805      3.595088     0.078847    0.095161   -0.008334
            14    0       0.011767      5.428443      5.424823    -0.099855   -0.096866   -0.120285
            15    0       1.792964      3.614199      5.417110     0.022915    0.033627    0.022612
            16    0       1.808955      5.430761      3.614044    -0.107344   -0.157336   -0.039919
            17    0       3.622279      0.001222      0.005229    -0.146782    0.004149   -0.031861
            18    0       3.621417      1.778646      1.799218    -0.066550    0.159623    0.021965
            19    0       5.406493     -0.011555      1.800024     0.078417   -0.061805    0.084698
            20    0       5.442038      1.789341      0.017512    -0.161434    0.122070   -0.121565
            21    0       3.579564     -0.006057      3.612944     0.244573    0.058414    0.010536
            22    0       3.620602      1.817863      5.429348    -0.039546   -0.035138   -0.065979
            23    0       5.408693     -0.008362      5.430517     0.035155    0.019784   -0.170760
            24    0       5.411540      1.781928      3.589503    -0.065283    0.111231    0.098195
            25    0       3.593371      3.618992      0.002576     0.196824   -0.090810   -0.047655
            26    0       3.622488      5.407273      1.807867    -0.085378    0.076504   -0.048069
            27    0       5.426314      3.604405      1.813261    -0.086939   -0.090626   -0.119273
            28    0       5.403028      5.408434     -0.006904     0.116505   -0.046300    0.077663
            29    0       3.588372      3.618807      3.601510     0.167607   -0.116612    0.117493
            30    0       3.610226      5.423695      5.423076    -0.016605   -0.119912   -0.053775
            31    0       5.427034      3.608219      5.407344    -0.098190    0.008392    0.012134
            32    0       5.413558      5.384483      3.583828     0.034657    0.254529    0.256093
 Energy
         -0.114093319502
 PlusStress:  xx          yy          zz          yz          xz          xy
        -4.82889    -4.84518    -4.81434     0.04342    -0.00014    -0.02976
END_CFG

BEGIN_CFG
 Size
    32
 Supercell
         7.220000      0.000000      0.000000
         0.000000      7.220000      0.000000
         0.000000      0.000000      7.220000
 AtomData:  id type       cartes_x      cartes_y      cartes_z           fx          fy          fz
             1    0       0.010913     -0.037275      0.026492    -0.075604    0.169908   -0.338800
             2    0       0.033703      1.735217      1.758693    -0.183531    0.408664    0.450180
             3    0       1.809838     -0.011305      1.804515     0.117359    0.069550    0.064095
             4    0       1.774573      1.836155      0.027383     0.242748   -0.333627   -0.404305
             5    0       0.002280      0.040084      3.626787    -0.036597   -0.358874   -0.068294
             6    0      -0.030732      1.817964      5.380971     0.174637   -0.177592    0.335780
             7    0       1.836343     -0.001241      5.408817    -0.231417    0.283612    0.268521
             8    0       1.780853      1.848668      3.604462     0.250068   -0.297554    0.023161
             9    0      -0.015299      3.597638      0.019211     0.098492    0.198055   -0.027158
            10    0       0.013123      5.429580      1.820631    -0.057788   -0.177264    0.035444
            11    0       1.881313      3.595569      1.786782    -0.605300    0.136692    0.163239
            12    0       1.776107      5.436939      0.040400     0.295337   -0.195068   -0.231618
            13    0      -0.003822      3.579971      3.580145     0.142908    0.185567   -0.012724
            14    0       0.023154      5.441518      5.434191    -0.189448   -0.183677   -0.224366
            15    0       1.781014      3.618525      5.419306     0.044809    0.060326    0.042714
            16    0       1.812503      5.445924      3.617936    -0.217028   -0.316792   -0.074337
            17    0       3.634001      0.002460      0.010337    -0.286718   -0.001389   -0.070122
            18    0       3.632582      1.752897      1.793520    -0.143923    0.321846    0.042422
            19    0       5.398283     -0.023343      1.795369     0.167168   -0.126227    0.162438
            20    0       5.468462      1.774145      0.034564    -0.315687    0.220328   -0.246965
            21    0       3.550056     -0.011892      3.615927     0.491392    0.135016    0.004286
            22    0       3.631054      1.830593      5.443447    -0.073992   -0.071747   -0.125747
            23    0       5.402519     -0.016649      5.445387     0.078535    0.057249   -0.320340
            24    0       5.407833      1.759278      3.569379    -0.119837    0.216626    0.197890
            25    0       3.577488      3.627639      0.004971     0.380276   -0.161189   -0.116234
            26    0       3.634652      5.399836      1.810552    -0.175069    0.154394   -0.099822
            27    0       5.437299      3.598467      1.821070    -0.177350   -0.186619   -0.248415
            28    0       5.391499      5.401692     -0.013514     0.230553   -0.091555    0.151277
            29    0       3.567380      3.627172      3.593466     0.332496   -0.217533    0.247988
            30    0       3.610389      5.431935      5.430948    -0.038463   -0.236007   -0.108876
            31    0       5.438695      3.606470      5.399735    -0.185592    0.030263    0.023761
            32    0       5.412248      5.354932      3.558626     0.066567    0.484617    0.504927
 Energy
          0.080426020779
 PlusStress:  xx          yy          zz          yz          xz          xy
        -4.05847    -4.12906    -3.99724     0.17033    -0.00237    -0.10915
END_CFG

BEGIN_CFG
 Size
    32
 Supercell
         7.220000      0.000000      0.000000
         0.000000      7.220000      0.000000
         0.000000      0.000000      7.220000
 AtomData:  id type       cartes_x      cartes_y      cartes_z           fx          fy          fz
             1    0       0.016029     -0.055095      0.038125    -0.137360    0.238977   -0.493820
             2    0       0.049697      1.702272      1.737646    -0.293205    0.596739    0.711040
             3    0       1.812808     -0.016626      1.804577     0.178457    0.100900    0.093175
             4    0       1.760496      1.850138      0.039165     0.382802   -0.475501   -0.609357
             5    0       0.003227      0.058418      3.634860    -0.026274   -0.524987   -0.106080
             6    0      -0.045261      1.823584      5.365560     0.246075   -0.236765    0.483882
             7    0       1.850920     -0.000503      5.406996    -0.348494    0.398037    0.400099
             8    0       1.769972      1.869095      3.601806     0.365355   -0.450612    0.031519
             9    0      -0.022477      3.592397      0.028691     0.142187    0.291290   -0.046647
            10    0       0.019418      5.436023      1.828604    -0.095970   -0.253226    0.064646
            11    0       1.916594      3.589008      1.778449    -0.894594    0.191947    0.241181
            12    0       1.763053      5.446996      0.059501     0.451507   -0.311649   -0.346445
            13    0      -0.005041      3.565842      3.565154     0.189232    0.269490   -0.009894
            14    0       0.033822      5.453896      5.442706    -0.267236   -0.260138   -0.312701
            15    0       1.769236      3.623079      5.421664     0.065742    0.078136    0.059182
            16    0       1.815228      5.459886      3.621546    -0.323448   -0.472561   -0.100948
            17    0       3.644635      0.003692      0.015179    -0.412834   -0.016102   -0.114337
            18    0       3.643200      1.728370      1.787983    -0.228683    0.482334    0.060533
            19    0       5.390706     -0.035610      1.791332     0.262127   -0.186721    0.228671
            20    0       5.493689      1.759785      0.050677    -0.463059    0.296006   -0.371787
            21    0       3.522413     -0.017214      3.618926     0.733997    0.222993   -0.015501
            22    0       3.641225      1.843050      5.457068    -0.103747   -0.109950   -0.179199
            23    0       5.396643     -0.024719      5.459040     0.126005    0.105945   -0.447327
            24    0       5.403671      1.737449      3.550006    -0.160712    0.315678    0.297703
            25    0       3.563049      3.635673      0.006924     0.548231   -0.213818   -0.202307
            26    0       3.646151      5.392985      1.812859    -0.265967    0.227714   -0.150689
            27    0       5.447610      3.591822      1.827936    -0.269255   -0.281679   -0.379985
            28    0       5.380845      5.394602     -0.019549     0.337956   -0.131364    0.217848
            29    0       3.547649      3.634711      3.586363     0.491128   -0.299220    0.385340
            30    0       3.610406      5.439280      5.438408    -0.065067   -0.342235   -0.163371
            31    0       5.449652      3.604836      5.392216    -0.259755    0.062214    0.035145
            32    0       5.411191      5.327220      3.535341     0.094859    0.688129    0.740430
 Energy
          0.378176411579
 PlusStress:  xx          yy          zz          yz          xz          xy
        -2.88962    -3.05238    -2.75008     0.36721    -0.00736    -0.22305
END_CFG

BEGIN_CFG
 Size
    32
 Supercell
         7.220000      0.000000      0.000000
         0.000000      7.220000      0.000000
         0.000000      0.000000      7.220000
 AtomData:  id type       cartes_x      cartes_y      cartes_z           fx          fy          fz
             1    0       0.020623     -0.072007      0.047884    -0.208652    0.299913   -0.629155
             2    0       0.064579      1.671592      1.719298    -0.404518    0.765819    0.972235
             3    0       1.816455     -0.021564      1.804991     0.233197    0.128043    0.117148
             4    0       1.747874      1.862317      0.048634     0.522187   -0.591544   -0.799601
             5    0       0.004075      0.074757      3.642531    -0.002604   -0.674490   -0.143554
             6    0      -0.058856      1.828305      5.351986     0.307117   -0.277153    0.611863
             7    0       1.864174      0.001744      5.406694    -0.459267    0.487156    0.518162
             8    0       1.760479      1.887812      3.599270     0.470793   -0.600111    0.041622
             9    0      -0.029115      3.588260      0.037995     0.183133    0.372589   -0.069363
            10    0       0.025347      5.441503      1.836821    -0.135977   -0.317355    0.093630
            11    0       1.948479      3.583175      1.771031    -1.160999    0.232424    0.311455
            12    0       1.751714      5.455870      0.077288     0.603091   -0.433050   -0.456477
            13    0      -0.005542      3.552738      3.550125     0.216558    0.344513    0.002330
            14    0       0.043476      5.465287      5.450035    -0.332517   -0.325462   -0.385429
            15    0       1.757707      3.627929      5.424246     0.085825    0.085669    0.070810
            16    0       1.816724      5.472053      3.624773    -0.418492   -0.616096   -0.117588
            17    0       3.653703      0.004863      0.019588    -0.517969   -0.038878   -0.162768
            18    0       3.652950      1.705674      1.782677    -0.315440    0.636047    0.075421
            19    0       5.384124     -0.048583      1.788163     0.357516   -0.234792    0.279175
            20    0       5.517156      1.746549      0.065379    -0.601535    0.349990   -0.490062
            21    0       3.497559     -0.021690      3.621866     0.961709    0.312113   -0.042219
            22    0       3.651000      1.855090      5.470010    -0.129213   -0.149822   -0.226985
            23    0       5.391246     -0.032387      5.470995     0.172512    0.158429   -0.550929
            24    0       5.398900      1.716819      3.531762    -0.185405    0.407214    0.396327
            25    0       3.550692      3.642894      0.008109     0.696425   -0.252481   -0.296933
            26    0       3.656640      5.386997      1.814594    -0.354041    0.289461   -0.194852
            27    0       5.456898      3.584109      1.833359    -0.360569   -0.366309   -0.502759
            28    0       5.371474      5.387015     -0.024758     0.434272   -0.160980    0.274148
            29    0       3.529782      3.641113      3.580722     0.638637   -0.359377    0.520110
            30    0       3.610177      5.445326      5.445248    -0.095063   -0.432469   -0.215709
            31    0       5.459622      3.603439      5.384832    -0.318865    0.099822    0.046482
            32    0       5.410494      5.302122      3.514867     0.118155    0.861167    0.953466
 Energy
          0.740353472144
 PlusStress:  xx          yy          zz          yz          xz          xy
        -1.48441    -1.76927    -1.24469     0.60554    -0.01172    -0.35201
END_CFG

BEGIN_CFG
 Size
    32
 Supercell
         7.220000      0.000000      0.000000
         0.000000      7.220000      0.000000
         0.000000      0.000000      7.220000
 AtomData:  id type       cartes_x      cartes_y      cartes_z           fx          fy          fz
             1    0       0.024425     -0.087779      0.055255    -0.280172    0.354781   -0.734193
             2    0       0.077924      1.643817      1.704640    -0.505938    0.909494    1.206344
             3    0       1.820985     -0.026016      1.805850     0.274029    0.149400    0.132692
             4    0       1.737237      1.872249      0.055064     0.645494   -0.677045   -0.957536
             5    0       0.004913      0.088534      3.649656     0.028241   -0.801664   -0.177485
             6    0      -0.071287      1.831974      5.340738     0.358720   -0.300314    0.714014
             7    0       1.875686      0.005841      5.408360    -0.556156    0.546359    0.611201
             8    0       1.752773      1.904251      3.596892     0.562685   -0.739818    0.056397
             9    0      -0.035056      3.585538      0.047034     0.222936    0.435578   -0.094158
            10    0       0.030760      5.445778      1.845392    -0.172975   -0.367087    0.114189
            11    0       1.975955      3.578226      1.764798    -1.389546    0.256062    0.367928
            12    0       1.742663      5.463099      0.093340     0.738561   -0.549055   -0.556752
            13    0      -0.005222      3.540942      3.535105     0.225099    0.407459    0.024956
            14    0       0.051867      5.475443      5.455902    -0.385166   -0.379657   -0.443122
            15    0       1.746506      3.633104      5.427096     0.105206    0.082067    0.076390
            16    0       1.816633      5.481882      3.627553    -0.491492   -0.736079   -0.122550
            17    0       3.660805      0.005886      0.023378    -0.595272   -0.067991   -0.212248
            18    0       3.661501      1.685392      1.777659    -0.397575    0.776664    0.085371
            19    0       5.378899     -0.062448      1.786054     0.445133   -0.262131    0.310524
            20    0       5.538340      1.734642      0.078219    -0.726626    0.383576   -0.594021
            21    0       3.476357     -0.024981      3.624646     1.159684    0.389365   -0.066778
            22    0       3.660283      1.866561      5.482091    -0.150699   -0.191452   -0.270270
            23    0       5.386505     -0.039454      5.480860     0.212637    0.207254   -0.630508
            24    0       5.393425      1.697736      3.515023    -0.192000    0.489093    0.491997
            25    0       3.540980      3.649156      0.008164     0.817272   -0.280782   -0.385914
            26    0       3.665784      5.382107      1.815590    -0.434546    0.332384   -0.226013
            27    0       5.464817      3.575007      1.836874    -0.448837   -0.428453   -0.602509
            28    0       5.363752      5.378816     -0.028927     0.515135   -0.175800    0.316895
            29    0       3.514338      3.646151      3.577056     0.768875   -0.397145    0.640124
            30    0       3.609587      5.449733      5.451269    -0.126248   -0.500414   -0.264012
            31    0       5.468381      3.602423      5.377624    -0.361632    0.138088    0.057986
            32    0       5.410247      5.280295      3.498012     0.135171    0.997261    1.131060
 Energy
          1.116821253668
 PlusStress:  xx          yy          zz          yz          xz          xy
        -0.04870    -0.46679     0.30036     0.84658    -0.00750    -0.48002
END_CFG

BEGIN_CFG
 Size
    32
 Supercell
         7.220000      0.000000      0.000000
         0.000000      7.220000      0.000000
         0.000000      0.000000      7.220000
 AtomData:  id type       cartes_x      cartes_y      cartes_z           fx          fy          fz
             1    0       0.027162     -0.102201      0.059838    -0.340624    0.405392   -0.797732
             2    0       0.089350      1.619495      1.694561    -0.584999    1.022281    1.382402
             3    0       1.826554     -0.029900      1.807212     0.293424    0.163387    0.136570
             4    0       1.729054      1.879609      0.057856     0.735566   -0.730114   -1.064352
             5    0       0.005859      0.099265      3.656109     0.059675   -0.901185   -0.204138
             6    0      -0.082358      1.834503      5.332204     0.401706   -0.308233    0.784815
             7    0       1.885088      0.012012      5.412347    -0.631137    0.571968    0.667124
             8    0       1.747205      1.917883      3.594728     0.637587   -0.862524    0.078433
             9    0      -0.040150      3.584470      0.055717     0.263177    0.474523   -0.119851
            10    0       0.035515      5.448656      1.854393    -0.202205   -0.399661    0.117595
            11    0       1.998157      3.574253      1.759964    -1.564278    0.262365    0.404042
            12    0       1.736416      5.468242      0.107278     0.845077   -0.647297   -0.641992
            13    0      -0.004050      3.530695      3.520181     0.216539    0.454134    0.058272
            14    0       0.058796      5.484157      5.460087    -0.425512   -0.423199   -0.486147
            15    0       1.735706      3.638589      5.430235     0.124136    0.066979    0.074925
            16    0       1.814676      5.488916      3.629869    -0.530650   -0.820262   -0.115209
            17    0       3.665647      0.006649      0.026364    -0.639035   -0.101047   -0.258424
            18    0       3.668543      1.668060      1.772967    -0.467481    0.896840    0.088744
            19    0       5.375361     -0.077309      1.785125     0.516326   -0.260474    0.320750
            20    0       5.556762      1.724191      0.088802    -0.832304    0.398202   -0.676280
            21    0       3.459560     -0.026795      3.627172     1.310759    0.441209   -0.079378
            22    0       3.668993      1.877307      5.493148    -0.168652   -0.235095   -0.310306
            23    0       5.382571     -0.045734      5.488331     0.241323    0.245883   -0.685622
            24    0       5.387219      1.680510      3.500151    -0.179337    0.558738    0.582276
            25    0       3.534371      3.654349      0.006751     0.901931   -0.302370   -0.452193
            26    0       3.673279      5.378476      1.815729    -0.502343    0.350238   -0.238361
            27    0       5.471031      3.564279      1.838100    -0.531085   -0.455736   -0.664438
            28    0       5.357987      5.369950     -0.031894     0.576663   -0.172120    0.343166
            29    0       3.501813      3.649680      3.575822     0.875043   -0.413250    0.732087
            30    0       3.608519      5.452242      5.456290    -0.155816   -0.540817   -0.306485
            31    0       5.475766      3.601931      5.370635    -0.387146    0.171871    0.069971
            32    0       5.410512      5.262255      3.485453     0.143672    1.089375    1.259733
 Energy
          1.453542619899
 PlusStress:  xx          yy          zz          yz          xz          xy
         1.20664     0.67178     1.66094     1.05151     0.01502    -0.59385
END_CFG

BEGIN_CFG
 Size
    32
 Supercell
         7.220000      0.000000      0.000000
         0.000000      7.220000      0.000000
         0.000000      0.000000      7.220000
 AtomData:  id type       cartes_x      cartes_y      cartes_z           fx          fy          fz
             1    0       0.028605     -0.115082      0.061392    -0.379057    0.452127   -0.810814
             2    0       0.098556      1.599049      1.689728    -0.631626    1.100271    1.473324
             3    0       1.833234     -0.033165      1.809093     0.285431    0.168739    0.126561
             4    0       1.723667      1.884195      0.056600     0.778234   -0.751380   -1.104360
             5    0       0.007032      0.106571      3.661788     0.085957   -0.968403   -0.219853
             6    0      -0.091907      1.835860      5.326653     0.436678   -0.303244    0.819978
             7    0       1.892096      0.020356      5.418869    -0.677819    0.561781    0.675745
             8    0       1.744060      1.928243      3.592860     0.691830   -0.960844    0.109195
             9    0      -0.044245      3.585205      0.063946     0.304762    0.485187   -0.145169
            10    0       0.039501      5.450013      1.863836    -0.219697   -0.413347    0.096271
            11    0       2.014422      3.571280      1.756668    -1.671341    0.252910    0.414787
            12    0       1.733378      5.470925      0.118775     0.910436   -0.715283   -0.707256
            13    0      -0.002059      3.522174      3.505478     0.194053    0.480453    0.101411
            14    0       0.064111      5.491266      5.462430    -0.454182   -0.456779   -0.514540
            15    0       1.725380      3.644328      5.433656     0.142968    0.040487    0.065805
            16    0       1.810705      5.492837      3.631747    -0.526161   -0.858962   -0.096440
            17    0       3.668064      0.007028      0.028370    -0.645570   -0.135108   -0.296291
            18    0       3.673810      1.654132      1.768613    -0.518266    0.989670    0.084313
            19    0       5.373782     -0.093160      1.785414     0.563319   -0.223827    0.309869
            20    0       5.572021      1.715252      0.096815    -0.912130    0.395752   -0.730833
            21    0       3.447743     -0.026933      3.629396     1.400097    0.456432   -0.071865
            22    0       3.677061      1.887164      5.503029    -0.183272   -0.280778   -0.348374
            23    0       5.379556     -0.051082      5.493199     0.254663    0.269448   -0.716354
            24    0       5.380329      1.665409      3.487489    -0.147485    0.613804    0.664080
            25    0       3.531189      3.658393      0.003615     0.942177   -0.320558   -0.479284
            26    0       3.678866      5.376170      1.814965    -0.552805    0.339223   -0.228092
            27    0       5.475228      3.551822      1.836802    -0.603672   -0.438875   -0.677004
            28    0       5.354410      5.360430     -0.033559     0.615870   -0.147621    0.351110
            29    0       3.492611      3.651638      3.577371     0.950299   -0.410318    0.783819
            30    0       3.606860      5.452701      5.460149    -0.180598   -0.550309   -0.341419
            31    0       5.481680      3.602093      5.363909    -0.394922    0.196308    0.082933
            32    0       5.411322      5.248353      3.477679     0.141830    1.133045    1.328746
 Energy
          1.703242312246
 PlusStress:  xx          yy          zz          yz          xz          xy
         2.10678     1.49903     2.64721     1.18866     0.06230    -0.68253
END_CFG

BEGIN_CFG
 Size
    32
 Supercell
         7.220000      0.000000      0.000000
         0.000000      7.220000      0.000000
         0.000000      0.000000      7.220000
 AtomData:  id type       cartes_x      cartes_y      cartes_z           fx          fy          fz
             1    0       0.028606     -0.126245      0.059868    -0.387252    0.493618   -0.769685
             2    0       0.105366      1.582773      1.690481    -0.641874    1.141888    1.462900
             3    0       1.840996     -0.035789      1.811456     0.247069    0.164811    0.102498