BEGIN_CFG
 Size
    32
 Supercell
         7.220000      0.000000      0.000000
         0.000000      7.220000      0.000000
         0.000000      0.000000      7.220000
 AtomData:  id type       cartes_x      cartes_y      cartes_z           fx          fy          fz
             1    0       0.000000      0.000000      0.000000     0.000000    0.000000    0.000000
             2    0       0.000000      1.805000      1.805000     0.000000    0.000000    0.000000
             3    0       1.805000      0.000000      1.805000    -0.000000    0.000000    0.000000
             4    0       1.805000      1.805000      0.000000     0.000000    0.000000    0.000000
             5    0       0.000000      0.000000      3.610000     0.000000    0.000000    0.000000
             6    0       0.000000      1.805000      5.415000     0.000000    0.000000   -0.000000
             7    0       1.805000      0.000000      5.415000     0.000000    0.000000   -0.000000
             8    0       1.805000      1.805000      3.610000     0.000000    0.000000   -0.000000
             9    0       0.000000      3.610000      0.000000     0.000000   -0.000000    0.000000
            10    0       0.000000      5.415000      1.805000     0.000000   -0.000000    0.000000
            11    0       1.805000      3.610000      1.805000     0.000000   -0.000000    0.000000
            12    0       1.805000      5.415000      0.000000     0.000000   -0.000000    0.000000
            13    0       0.000000      3.610000      3.610000     0.000000    0.000000    0.000000
            14    0       0.000000      5.415000      5.415000     0.000000   -0.000000   -0.000000
            15    0       1.805000      3.610000      5.415000     0.000000   -0.000000   -0.000000
            16    0       1.805000      5.415000      3.610000     0.000000   -0.000000    0.000000
            17    0       3.610000      0.000000      0.000000     0.000000    0.000000    0.000000
            18    0       3.610000      1.805000      1.805000    -0.000000    0.000000    0.000000
            19    0       5.415000      0.000000      1.805000    -0.000000    0.000000    0.000000
            20    0       5.415000      1.805000      0.000000    -0.000000    0.000000    0.000000
            21    0       3.610000      0.000000      3.610000     0.000000    0.000000    0.000000
            22    0       3.610000      1.805000      5.415000    -0.000000    0.000000   -0.000000
            23    0       5.415000      0.000000      5.415000    -0.000000   -0.000000   -0.000000
            24    0       5.415000      1.805000      3.610000    -0.000000    0.000000    0.000000
            25    0       3.610000      3.610000      0.000000    -0.000000   -0.000000    0.000000
            26    0       3.610000      5.415000      1.805000     0.000000   -0.000000    0.000000
            27    0       5.415000      3.610000      1.805000    -0.000000   -0.000000    0.000000
            28    0       5.415000      5.415000      0.000000    -0.000000   -0.000000    0.000000
            29    0       3.610000      3.610000      3.610000    -0.000000    0.000000   -0.000000
            30    0       3.610000      5.415000      5.415000     0.000000   -0.000000   -0.000000
            31    0       5.415000      3.610000      5.415000    -0.000000   -0.000000   -0.000000
            32    0       5.415000      5.415000      3.610000    -0.000000   -0.000000    0.000000
 Energy
         -0.181101429712
 PlusStress:  xx          yy          zz          yz          xz          xy
        -5.08918    -5.08918    -5.08918     0.00000     0.00000    -0.00000
END_CFG

BEGIN_CFG
 Size
    32
 Supercell
         7.220000      0.000000      0.000000
         0.000000      7.220000      0.000000
         0.000000      0.000000      7.220000
 AtomData:  id type       cartes_x      cartes_y      cartes_z           fx          fy          fz
             1    0       0.005511     -0.018809      0.013573    -0.026774    0.090866   -0.168603
             2    0       0.017011      1.769714      1.781449    -0.084482    0.207023    0.206655
             3    0       1.807312     -0.005720      1.804696     0.055774    0.034146    0.029440
             4    0       1.789572      1.820905      0.014067     0.110592   -0.172243   -0.193118
             5    0       0.001194      0.020387      3.618455    -0.027827   -0.181121   -0.033158
             6    0      -0.015541      1.811669      5.397658     0.093312   -0.099440    0.172480
             7    0       1.820888     -0.000903      5.411657    -0.113914    0.144261    0.131497
             8    0       1.792685      1.827111      3.607205     0.126401   -0.145248    0.012340
             9    0      -0.007747      3.603631      0.009627     0.050487    0.096937   -0.009400
            10    0       0.006609      5.422465      1.812792    -0.024166   -0.090334    0.011087
            11    0       1.843734      3.602650      1.795736    -0.302738    0.070396    0.081718
            12    0       1.790282      5.426141      0.020419     0.141125   -0.088270   -0.113146
            13    0      -0.002061      3.594805      3.595088     0.078878    0.095248   -0.008613
            14    0       0.011767      5.428443      5.424823    -0.098591   -0.094251   -0.118536
            15    0       1.792964      3.614199      5.417110     0.025384    0.030516    0.021140
            16    0       1.808955      5.430761      3.614044    -0.106583   -0.157028   -0.042255
            17    0       3.622279      0.001222      0.005229    -0.146642    0.002488   -0.029606
            18    0       3.621417      1.778646      1.799218    -0.066144    0.156690    0.021609
            19    0       5.406493     -0.011555      1.800024     0.076347   -0.057721    0.084252
            20    0       5.442038      1.789341      0.017512    -0.160046    0.121373   -0.117765
            21    0       3.579564     -0.006057      3.612944     0.243502    0.058468    0.007290
            22    0       3.620602      1.817863      5.429348    -0.040084   -0.036734   -0.065908
            23    0       5.408693     -0.008362      5.430517     0.035808    0.019320   -0.169261
            24    0       5.411540      1.781928      3.589503    -0.062992    0.109381    0.095558
            25    0       3.593371      3.618992      0.002576     0.194343   -0.089330   -0.046228
            26    0       3.622488      5.407273      1.807867    -0.085258    0.077035   -0.048082
            27    0       5.426314      3.604405      1.813261    -0.086192   -0.086856   -0.118665
            28    0       5.403028      5.408434     -0.006904     0.115014   -0.045324    0.077904
            29    0       3.588372      3.618807      3.601510     0.163360   -0.115069    0.114681
            30    0       3.610226      5.423695      5.423076    -0.015353   -0.118642   -0.051894
            31    0       5.427034      3.608219      5.407344    -0.097522    0.009615    0.015280
            32    0       5.413558      5.384483      3.583828     0.034979    0.253849    0.251307
 Energy
         -0.114272252692
 PlusStress:  xx          yy          zz          yz          xz          xy
        -4.82027    -4.83938    -4.80999     0.04789     0.00070    -0.03445
END_CFG

BEGIN_CFG
 Size
    32
 Supercell
         7.220000      0.000000      0.000000
         0.000000      7.220000      0.000000
         0.000000      0.000000      7.220000
 AtomData:  id type       cartes_x      cartes_y      cartes_z           fx          fy          fz
             1    0       0.010913     -0.037275      0.026492    -0.071188    0.171153   -0.331710
             2    0       0.033703      1.735217      1.758693    -0.183842    0.407549    0.444781
             3    0       1.809838     -0.011305      1.804515     0.116212    0.066995    0.058345
             4    0       1.774573      1.836155      0.027383     0.238373   -0.333644   -0.395868
             5    0       0.002280      0.040084      3.626787    -0.035253   -0.358151   -0.068934
             6    0      -0.030732      1.817964      5.380971     0.176837   -0.179699    0.335621
             7    0       1.836343     -0.001241      5.408817    -0.231524    0.275210    0.266249
             8    0       1.780853      1.848668      3.604462     0.248519   -0.296277    0.021095
             9    0      -0.015299      3.597638      0.019211     0.097694    0.193835   -0.022970
            10    0       0.013123      5.429580      1.820631    -0.055863   -0.174291    0.032566
            11    0       1.881313      3.595569      1.786782    -0.603510    0.134952    0.163073
            12    0       1.776107      5.436939      0.040400     0.291593   -0.191680   -0.227682
            13    0      -0.003822      3.579971      3.580145     0.143047    0.186324   -0.013216
            14    0       0.023154      5.441518      5.434191    -0.187226   -0.178764   -0.221735
            15    0       1.781014      3.618525      5.419306     0.049231    0.054772    0.039871
            16    0       1.812503      5.445924      3.617936    -0.215956   -0.316221   -0.078490
            17    0       3.634001      0.002460      0.010337    -0.286485   -0.004815   -0.065536
            18    0       3.632582      1.752897      1.793520    -0.142934    0.316385    0.041745
            19    0       5.398283     -0.023343      1.795369     0.163260   -0.118326    0.161809
            20    0       5.468462      1.774145      0.034564    -0.313322    0.219208   -0.239304
            21    0       3.550056     -0.011892      3.615927     0.490469    0.135038   -0.001661
            22    0       3.631054      1.830593      5.443447    -0.075520   -0.074817   -0.125960
            23    0       5.402519     -0.016649      5.445387     0.080111    0.055578   -0.318639
            24    0       5.407833      1.759278      3.569379    -0.115986    0.212861    0.192710
            25    0       3.577488      3.627639      0.004971     0.376094   -0.158801   -0.113463
            26    0       3.634652      5.399836      1.810552    -0.174712    0.154861   -0.099855
            27    0       5.437299      3.598467      1.821070    -0.176567   -0.179526   -0.247874
            28    0       5.391499      5.401692     -0.013514     0.227486   -0.089538    0.151541
            29    0       3.567380      3.627172      3.593466     0.324129   -0.214519    0.242641
            30    0       3.610389      5.431935      5.430948    -0.035842   -0.233539   -0.105734
            31    0       5.438695      3.606470      5.399735    -0.184660    0.033128    0.029789
            32    0       5.412248      5.354932      3.558626     0.067335    0.484760    0.496798
 Energy
          0.078702193955
 PlusStress:  xx          yy          zz          yz          xz          xy
        -4.04427    -4.12610    -3.99838     0.18904     0.00073    -0.12766
END_CFG

BEGIN_CFG
 Size
    32
 Supercell
         7.220000      0.000000      0.000000
         0.000000      7.220000      0.000000
         0.000000      0.000000      7.220000
 AtomData:  id type       cartes_x      cartes_y      cartes_z           fx          fy          fz
             1    0       0.016029     -0.055095      0.038125    -0.131166    0.241560   -0.484523
             2    0       0.049697      1.702272      1.737646    -0.293351    0.596387    0.704537
             3    0       1.812808     -0.016626      1.804577     0.177057    0.097071    0.085283
             4    0       1.760496      1.850138      0.039165     0.378163   -0.476942   -0.600129
             5    0       0.003227      0.058418      3.634860    -0.024939   -0.525602   -0.106072
             6    0      -0.045261      1.823584      5.365560     0.250023   -0.240781    0.484897
             7    0       1.850920     -0.000503      5.406996    -0.349153    0.387392    0.397661
             8    0       1.769972      1.869095      3.601806     0.364847   -0.449878    0.029194
             9    0      -0.022477      3.592397      0.028691     0.141579    0.285555   -0.040729
            10    0       0.019418      5.436023      1.828604    -0.092951   -0.249805    0.060449
            11    0       1.916594      3.589008      1.778449    -0.895030    0.189347    0.241858
            12    0       1.763053      5.446996      0.059501     0.447120   -0.307551   -0.341783
            13    0      -0.005041      3.565842      3.565154     0.189552    0.271603   -0.010596
            14    0       0.033822      5.453896      5.442706    -0.264367   -0.252433   -0.309151
            15    0       1.769236      3.623079      5.421664     0.071520    0.070928    0.055166
            16    0       1.815228      5.459886      3.621546    -0.322915   -0.472121   -0.106441
            17    0       3.644635      0.003692      0.015179    -0.412862   -0.021322   -0.107478
            18    0       3.643200      1.728370      1.787983    -0.227089    0.475110    0.059657
            19    0       5.390706     -0.035610      1.791332     0.256894   -0.175712    0.228299
            20    0       5.493689      1.759785      0.050677    -0.461304    0.294812   -0.361499
            21    0       3.522413     -0.017214      3.618926     0.734981    0.223195   -0.023676
            22    0       3.641225      1.843050      5.457068    -0.106701   -0.114273   -0.180070
            23    0       5.396643     -0.024719      5.459040     0.128816    0.102540   -0.446744
            24    0       5.403671      1.737449      3.550006    -0.156273    0.310147    0.290324
            25    0       3.563049      3.635673      0.006924     0.543917   -0.211143   -0.198895
            26    0       3.646151      5.392985      1.812859    -0.265400    0.227846   -0.151023
            27    0       5.447610      3.591822      1.827936    -0.269182   -0.272314   -0.380593
            28    0       5.380845      5.394602     -0.019549     0.333318   -0.128370    0.218055
            29    0       3.547649      3.634711      3.586363     0.479457   -0.294992    0.378490
            30    0       3.610406      5.439280      5.438408    -0.061047   -0.338848   -0.159689
            31    0       5.449652      3.604836      5.392216    -0.259030    0.067071    0.043615
            32    0       5.411191      5.327220      3.535341     0.095516    0.691520    0.731608
 Energy
          0.374781322308
 PlusStress:  xx          yy          zz          yz          xz          xy
        -2.84976    -3.04311    -2.74597     0.40662    -0.00101    -0.26493
END_CFG

BEGIN_CFG
 Size
    32
 Supercell
         7.220000      0.000000      0.000000
         0.000000      7.220000      0.000000
         0.000000      0.000000      7.220000
 AtomData:  id type       cartes_x      cartes_y      cartes_z           fx          fy          fz
             1    0       0.020623     -0.072007      0.047884    -0.202119    0.304221   -0.619711
             2    0       0.064579      1.671592      1.719298    -0.405077    0.766464    0.966211
             3    0       1.816455     -0.021564      1.804991     0.232274    0.122757    0.107822
             4    0       1.747874      1.862317      0.048634     0.519699   -0.595414   -0.793075
             5    0       0.004075      0.074757      3.642531    -0.001602   -0.677659   -0.142464
             6    0      -0.058856      1.828305      5.351986     0.313123   -0.283457    0.614895
             7    0       1.864174      0.001744      5.406694    -0.460887    0.475614    0.516521
             8    0       1.760479      1.887812      3.599270     0.470555   -0.599970    0.038808
             9    0      -0.029115      3.588260      0.037995     0.183023    0.366146   -0.062064
            10    0       0.025347      5.441503      1.836821    -0.131891   -0.314312    0.088430
            11    0       1.948479      3.583175      1.771031    -1.166677    0.229220    0.313869
            12    0       1.751714      5.455870      0.077288     0.597018   -0.427572   -0.451313
            13    0      -0.005542      3.552738      3.550125     0.217047    0.348532    0.001410
            14    0       0.043476      5.465287      5.450035    -0.329209   -0.313710   -0.379913
            15    0       1.757707      3.627929      5.424246     0.092369    0.077614    0.065907
            16    0       1.816724      5.472053      3.624773    -0.419783   -0.616648   -0.123963
            17    0       3.653703      0.004863      0.019588    -0.518737   -0.045900   -0.153908
            18    0       3.652950      1.705674      1.782677    -0.313381    0.628302    0.074779
            19    0       5.384124     -0.048583      1.788163     0.351789   -0.221569    0.279530
            20    0       5.517156      1.746549      0.065379    -0.599833    0.348154   -0.477305
            21    0       3.497559     -0.021690      3.621866     0.966705    0.313003   -0.051961
            22    0       3.651000      1.855090      5.470010    -0.133737   -0.155178   -0.229014
            23    0       5.391246     -0.032387      5.470995     0.176792    0.153110   -0.552475
            24    0       5.398900      1.716819      3.531762    -0.181255    0.400454    0.387482
            25    0       3.550692      3.642894      0.008109     0.694115   -0.250228   -0.294114
            26    0       3.656640      5.386997      1.814594    -0.353423    0.289293   -0.195952
            27    0       5.456898      3.584109      1.833359    -0.361842   -0.356027   -0.505710
            28    0       5.371474      5.387015     -0.024758     0.428150   -0.157167    0.274309
            29    0       3.529782      3.641113      3.580722     0.624985   -0.354220    0.513362
            30    0       3.610177      5.445326      5.445248    -0.089744   -0.428764   -0.212405
            31    0       5.459622      3.603439      5.384832    -0.318772    0.106887    0.056862
            32    0       5.410494      5.302122      3.514867     0.120328    0.868025    0.945148
 Energy
          0.735942679644
 PlusStress:  xx          yy          zz          yz          xz          xy
        -1.39982    -1.74535    -1.21960     0.66620    -0.00223    -0.41369
END_CFG

BEGIN_CFG
 Size
    32
 Supercell
         7.220000      0.000000      0.000000
         0.000000      7.220000      0.000000
         0.000000      0.000000      7.220000
 AtomData:  id type       cartes_x      cartes_y      cartes_z           fx          fy          fz
             1    0       0.024425     -0.087779      0.055255    -0.273488    0.359937   -0.726051
             2    0       0.077924      1.643817      1.704640    -0.507442    0.912492    1.203474
             3    0       1.820985     -0.026016      1.805850     0.274396    0.142440    0.122658
             4    0       1.737237      1.872249      0.055064     0.646867   -0.683808   -0.956109
             5    0       0.004913      0.088534      3.649656     0.028739   -0.808267   -0.175118
             6    0      -0.071287      1.831974      5.340738     0.367115   -0.308958    0.719792
             7    0       1.875686      0.005841      5.408360    -0.558882    0.534903    0.611069
             8    0       1.752773      1.904251      3.596892     0.561509   -0.740946    0.052730
             9    0      -0.035056      3.585538      0.047034     0.223548    0.429219   -0.085918
            10    0       0.030760      5.445778      1.845392    -0.167759   -0.365206    0.108346
            11    0       1.975955      3.578226      1.764798    -1.402102    0.253818    0.372695
            12    0       1.742663      5.463099      0.093340     0.730391   -0.542247   -0.551259
            13    0      -0.005222      3.540942      3.535105     0.225304    0.413926    0.023902
            14    0       0.051867      5.475443      5.455902    -0.381499   -0.364046   -0.435744
            15    0       1.746506      3.633104      5.427096     0.111977    0.073862    0.070940
            16    0       1.816633      5.481882      3.627553    -0.495001   -0.737727   -0.129386
            17    0       3.660805      0.005886      0.023378    -0.597148   -0.076786   -0.201838
            18    0       3.661501      1.685392      1.777659    -0.395777    0.768910    0.084165
            19    0       5.378899     -0.062448      1.786054     0.439079   -0.248921    0.311889
            20    0       5.538340      1.734642      0.078219    -0.724880    0.381505   -0.578553
            21    0       3.476357     -0.024981      3.624646     1.170006    0.391184   -0.077966
            22    0       3.660283      1.866561      5.482091    -0.156914   -0.197730   -0.273720
            23    0       5.386505     -0.039454      5.480860     0.218468    0.200184   -0.634678
            24    0       5.393425      1.697736      3.515023    -0.189014    0.481050    0.482133
            25    0       3.540980      3.649156      0.008164     0.817748   -0.278449   -0.384947
            26    0       3.665784      5.382107      1.815590    -0.434089    0.332141   -0.228252
            27    0       5.464817      3.575007      1.836874    -0.451903   -0.418464   -0.608654
            28    0       5.363752      5.378816     -0.028927     0.507700   -0.171322    0.317066
            29    0       3.514338      3.646151      3.577056     0.754734   -0.391201    0.635115
            30    0       3.609587      5.449733      5.451269    -0.119849   -0.495988   -0.260867
            31    0       5.468381      3.602423      5.377624    -0.362438    0.147347    0.069720
            32    0       5.410247      5.280295      3.498012     0.140602    1.007146    1.123364
 Energy
          1.112361281647
 PlusStress:  xx          yy          zz          yz          xz          xy
         0.09637    -0.41445     0.36483     0.92650     0.00615    -0.56309
END_CFG

BEGIN_CFG
 Size
    32
 Supercell
         7.220000      0.000000      0.000000
         0.000000      7.220000      0.000000
         0.000000      0.000000      7.220000
 AtomData:  id type       cartes_x      cartes_y      cartes_z           fx          fy          fz
             1    0       0.027162     -0.102201      0.059838    -0.334267    0.411156   -0.791805
             2    0       0.089350      1.619495      1.694561    -0.587613    1.029008    1.384069
             3    0       1.826554     -0.029900      1.807212     0.295509    0.154683    0.126397
             4    0       1.729054      1.879609      0.057856     0.741235   -0.739376   -1.068470
             5    0       0.005859      0.099265      3.656109     0.059564   -0.911553   -0.200568
             6    0      -0.082358      1.834503      5.332204     0.412102   -0.318961    0.793017
             7    0       1.885088      0.012012      5.412347    -0.634612    0.561052    0.668579
             8    0       1.747205      1.917883      3.594728     0.635772   -0.865201    0.073912
             9    0      -0.040150      3.584470      0.055717     0.264535    0.468770   -0.111292
            10    0       0.035515      5.448656      1.854393    -0.196361   -0.398796    0.111304
            11    0       1.998157      3.574253      1.759964    -1.583503    0.261278    0.411060
            12    0       1.736416      5.468242      0.107278     0.835249   -0.639826   -0.636661
            13    0      -0.004050      3.530695      3.520181     0.216264    0.462203    0.057811
            14    0       0.058796      5.484157      5.460087    -0.421457   -0.404638   -0.477455
            15    0       1.735706      3.638589      5.430235     0.130695    0.059118    0.069290
            16    0       1.814676      5.488916      3.629869    -0.536102   -0.822829   -0.122124
            17    0       3.665647      0.006649      0.026364    -0.642086   -0.111526   -0.247044
            18    0       3.668543      1.668060      1.772967    -0.465736    0.889252    0.086892
            19    0       5.375361     -0.077309      1.785125     0.509958   -0.248137    0.323064
            20    0       5.556762      1.724191      0.088802    -0.831021    0.396173   -0.658640
            21    0       3.459560     -0.026795      3.627172     1.326003    0.444511   -0.091679
            22    0       3.668993      1.877307      5.493148    -0.176740   -0.242530   -0.315263
            23    0       5.382571     -0.045734      5.488331     0.248587    0.237488   -0.692320
            24    0       5.387219      1.680510      3.500151    -0.178035    0.549595    0.571925
            25    0       3.534371      3.654349      0.006751     0.905460   -0.299589   -0.453838
            26    0       3.673279      5.378476      1.815729    -0.501869    0.349994   -0.241598
            27    0       5.471031      3.564279      1.838100    -0.536091   -0.446651   -0.673847
            28    0       5.357987      5.369950     -0.031894     0.568163   -0.167193    0.343292
            29    0       3.501813      3.649680      3.575822     0.861776   -0.406380    0.729941
            30    0       3.608519      5.452242      5.456290    -0.148632   -0.535368   -0.303325
            31    0       5.475766      3.601931      5.370635    -0.388925    0.183018    0.082529
            32    0       5.410512      5.262255      3.485453     0.152179    1.101254    1.252847
 Energy
          1.449884225936
 PlusStress:  xx          yy          zz          yz          xz          xy
         1.42477     0.77309     1.78801     1.15085     0.03419    -0.69818
END_CFG

BEGIN_CFG
 Size
    32
 Supercell
         7.220000      0.000000      0.000000
         0.000000      7.220000      0.000000
         0.000000      0.000000      7.220000
 AtomData:  id type       cartes_x      cartes_y      cartes_z           fx          fy          fz
             1    0       0.028605     -0.115082      0.061392    -0.373639    0.458056   -0.806332
             2    0       0.098556      1.599049      1.689728    -0.634302    1.110219    1.478812
             3    0       1.833234     -0.033165      1.809093     0.288969    0.158483    0.116547
             4    0       1.723667      1.884195      0.056600     0.787259   -0.762053   -1.112272
             5    0       0.007032      0.106571      3.661788     0.085665   -0.981676   -0.215434
             6    0      -0.091907      1.835860      5.326653     0.448466   -0.315525    0.829679
             7    0       1.892096      0.020356      5.418869    -0.681115    0.551361    0.678140
             8    0       1.744060      1.928243      3.592860     0.689746   -0.964998    0.103649
             9    0      -0.044245      3.585205      0.063946     0.306984    0.480195   -0.136738
            10    0       0.039501      5.450013      1.863836    -0.213733   -0.413039    0.089455
            11    0       2.014422      3.571280      1.756668    -1.695270    0.252792    0.423086
            12    0       1.733378      5.470925      0.118775     0.899562   -0.708114   -0.702013
            13    0      -0.002059      3.522174      3.505478     0.193337    0.489517    0.101340
            14    0       0.064111      5.491266      5.462430    -0.449644   -0.436411   -0.505053
            15    0       1.725380      3.644328      5.433656     0.149029    0.033246    0.060363
            16    0       1.810705      5.492837      3.631747    -0.532890   -0.861991   -0.103145
            17    0       3.668064      0.007028      0.028370    -0.649524   -0.147080   -0.284557
            18    0       3.673810      1.654132      1.768613    -0.516282    0.982624    0.081960
            19    0       5.373782     -0.093160      1.785414     0.557011   -0.212746    0.312706
            20    0       5.572021      1.715252      0.096815    -0.911502    0.393750   -0.711565
            21    0       3.447743     -0.026933      3.629396     1.418801    0.461192   -0.084388
            22    0       3.677061      1.887164      5.503029    -0.193000   -0.289009   -0.354489
            23    0       5.379556     -0.051082      5.493199     0.263013    0.260313   -0.724941
            24    0       5.380329      1.665409      3.487489    -0.147889    0.603794    0.653784
            25    0       3.531189      3.658393      0.003615     0.947571   -0.317126   -0.482706
            26    0       3.678866      5.376170      1.814965    -0.552661    0.338848   -0.232518
            27    0       5.475228      3.551822      1.836802    -0.610410   -0.430545   -0.688851
            28    0       5.354410      5.360430     -0.033559     0.606532   -0.142155    0.351286
            29    0       3.492611      3.651638      3.577371     0.937928   -0.402670    0.784366
            30    0       3.606860      5.452701      5.460149    -0.172951   -0.543653   -0.338145
            31    0       5.481680      3.602093      5.363909    -0.397562    0.208714    0.095837
            32    0       5.411322      5.248353      3.477679     0.152501    1.145685    1.322137
 Energy
          1.700746726495
 PlusStress:  xx          yy          zz          yz          xz          xy
         2.40328     1.66131     2.84581     1.30736     0.08900    -0.80558
END_CFG

BEGIN_CFG
 Size
    32
 Supercell
         7.220000      0.000000      0.000000
         0.000000      7.220000      0.000000
         0.000000      0.000000      7.220000
 AtomData:  id type       cartes_x      cartes_y      cartes_z           fx          fy          fz
             1    0       0.028606     -0.126245      0.059868    -0.383176    0.499649   -0.764959
             2    0       0.105366      1.582773      1.690481    -0.643468    1.153356    1.469232
             3    0       1.840996     -0.035789      1.811456     0.251157    0.153447    0.092691