BEGIN_CFG
 Size
    32
 Supercell
         7.220000      0.000000      0.000000
         0.000000      7.220000      0.000000
         0.000000      0.000000      7.220000
 AtomData:  id type       cartes_x      cartes_y      cartes_z           fx          fy          fz
             1    0       0.000000      0.000000      0.000000     0.000000   -0.000000    0.000000
             2    0       0.000000      1.805000      1.805000     0.000000   -0.000000   -0.000000
             3    0       1.805000      0.000000      1.805000    -0.000000    0.000000   -0.000000
             4    0       1.805000      1.805000      0.000000    -0.000000   -0.000000    0.000000
             5    0       0.000000      0.000000      3.610000     0.000000   -0.000000    0.000000
             6    0       0.000000      1.805000      5.415000     0.000000   -0.000000    0.000000
             7    0       1.805000      0.000000      5.415000    -0.000000    0.000000    0.000000
             8    0       1.805000      1.805000      3.610000    -0.000000   -0.000000    0.000000
             9    0       0.000000      3.610000      0.000000     0.000000    0.000000    0.000000
            10    0       0.000000      5.415000      1.805000     0.000000    0.000000   -0.000000
            11    0       1.805000      3.610000      1.805000    -0.000000    0.000000   -0.000000
            12    0       1.805000      5.415000      0.000000    -0.000000    0.000000    0.000000
            13    0       0.000000      3.610000      3.610000     0.000000    0.000000    0.000000
            14    0       0.000000      5.415000      5.415000     0.000000    0.000000    0.000000
            15    0       1.805000      3.610000      5.415000    -0.000000    0.000000    0.000000
            16    0       1.805000      5.415000      3.610000    -0.000000    0.000000    0.000000
            17    0       3.610000      0.000000      0.000000     0.000000    0.000000    0.000000
            18    0       3.610000      1.805000      1.805000     0.000000   -0.000000   -0.000000
            19    0       5.415000      0.000000      1.805000     0.000000    0.000000   -0.000000
            20    0       5.415000      1.805000      0.000000     0.000000   -0.000000    0.000000
            21    0       3.610000      0.000000      3.610000     0.000000    0.000000    0.000000
            22    0       3.610000      1.805000      5.415000     0.000000   -0.000000    0.000000
            23    0       5.415000      0.000000      5.415000     0.000000    0.000000    0.000000
            24    0       5.415000      1.805000      3.610000     0.000000   -0.000000    0.000000
            25    0       3.610000      3.610000      0.000000     0.000000    0.000000    0.000000
            26    0       3.610000      5.415000      1.805000     0.000000    0.000000   -0.000000
            27    0       5.415000      3.610000      1.805000     0.000000    0.000000   -0.000000
            28    0       5.415000      5.415000      0.000000     0.000000    0.000000    0.000000
            29    0       3.610000      3.610000      3.610000     0.000000    0.000000    0.000000
            30    0       3.610000      5.415000      5.415000     0.000000    0.000000    0.000000
            31    0       5.415000      3.610000      5.415000     0.000000   -0.000000    0.000000
            32    0       5.415000      5.415000      3.610000     0.000000    0.000000    0.000000
 Energy
         -0.179836490348
 PlusStress:  xx          yy          zz          yz          xz          xy
        -5.06399    -5.06399    -5.06399     0.00000    -0.00000     0.00000
END_CFG

BEGIN_CFG
 Size
    32
 Supercell
         7.220000      0.000000      0.000000
         0.000000      7.220000      0.000000
         0.000000      0.000000      7.220000
 AtomData:  id type       cartes_x      cartes_y      cartes_z           fx          fy          fz
             1    0       0.005511     -0.018809      0.013573    -0.026832    0.090731   -0.168026
             2    0       0.017011      1.769714      1.781449    -0.084043    0.206407    0.206012
             3    0       1.807312     -0.005720      1.804696     0.055710    0.034074    0.029445
             4    0       1.789572      1.820905      0.014067     0.110301   -0.171779   -0.192316
             5    0       0.001194      0.020387      3.618455    -0.027945   -0.180747   -0.033433
             6    0      -0.015541      1.811669      5.397658     0.093298   -0.099235    0.172135
             7    0       1.820888     -0.000903      5.411657    -0.113735    0.144055    0.131255
             8    0       1.792685      1.827111      3.607205     0.125956   -0.144978    0.012093
             9    0      -0.007747      3.603631      0.009627     0.050410    0.096707   -0.009334
            10    0       0.006609      5.422465      1.812792    -0.023870   -0.090185    0.010844
            11    0       1.843734      3.602650      1.795736    -0.301975    0.070305    0.081463
            12    0       1.790282      5.426141      0.020419     0.140754   -0.087752   -0.112649
            13    0      -0.002061      3.594805      3.595088     0.078692    0.095039   -0.008730
            14    0       0.011767      5.428443      5.424823    -0.098368   -0.094156   -0.118288
            15    0       1.792964      3.614199      5.417110     0.025377    0.030712    0.021157
            16    0       1.808955      5.430761      3.614044    -0.106261   -0.156412   -0.042315
            17    0       3.622279      0.001222      0.005229    -0.146392    0.002535   -0.029192
            18    0       3.621417      1.778646      1.799218    -0.065913    0.156293    0.021511
            19    0       5.406493     -0.011555      1.800024     0.076313   -0.057842    0.083886
            20    0       5.442038      1.789341      0.017512    -0.159875    0.120996   -0.117548
            21    0       3.579564     -0.006057      3.612944     0.242630    0.058168    0.007216
            22    0       3.620602      1.817863      5.429348    -0.040101   -0.036657   -0.065787
            23    0       5.408693     -0.008362      5.430517     0.035723    0.019200   -0.168785
            24    0       5.411540      1.781928      3.589503    -0.062835    0.109147    0.095177
            25    0       3.593371      3.618992      0.002576     0.193911   -0.089147   -0.045696
            26    0       3.622488      5.407273      1.807867    -0.085048    0.076896   -0.047948
            27    0       5.426314      3.604405      1.813261    -0.085715   -0.086893   -0.118439
            28    0       5.403028      5.408434     -0.006904     0.114810   -0.045133    0.078058
            29    0       3.588372      3.618807      3.601510     0.163038   -0.114870    0.114103
            30    0       3.610226      5.423695      5.423076    -0.015403   -0.118184   -0.051676
            31    0       5.427034      3.608219      5.407344    -0.097287    0.009348    0.015221
            32    0       5.413558      5.384483      3.583828     0.034676    0.253358    0.250586
 Energy
         -0.113190084444
 PlusStress:  xx          yy          zz          yz          xz          xy
        -4.80877    -4.82752    -4.79805     0.04552     0.00055    -0.03231
END_CFG

BEGIN_CFG
 Size
    32
 Supercell
         7.220000      0.000000      0.000000
         0.000000      7.220000      0.000000
         0.000000      0.000000      7.220000
 AtomData:  id type       cartes_x      cartes_y      cartes_z           fx          fy          fz
             1    0       0.010913     -0.037275      0.026492    -0.071192    0.170946   -0.331014
             2    0       0.033703      1.735217      1.758693    -0.182864    0.406648    0.443463
             3    0       1.809838     -0.011305      1.804515     0.116157    0.066826    0.058364
             4    0       1.774573      1.836155      0.027383     0.237541   -0.332949   -0.394209
             5    0       0.002280      0.040084      3.626787    -0.035790   -0.357524   -0.069586
             6    0      -0.030732      1.817964      5.380971     0.176991   -0.179569    0.335182
             7    0       1.836343     -0.001241      5.408817    -0.231253    0.274918    0.265787
             8    0       1.780853      1.848668      3.604462     0.247674   -0.295821    0.020704
             9    0      -0.015299      3.597638      0.019211     0.097536    0.193500   -0.022781
            10    0       0.013123      5.429580      1.820631    -0.055125   -0.174074    0.031981
            11    0       1.881313      3.595569      1.786782    -0.602277    0.135031    0.162671
            12    0       1.776107      5.436939      0.040400     0.290805   -0.190339   -0.226615
            13    0      -0.003822      3.579971      3.580145     0.143111    0.185891   -0.013620
            14    0       0.023154      5.441518      5.434191    -0.186990   -0.178961   -0.221643
            15    0       1.781014      3.618525      5.419306     0.049312    0.055134    0.039913
            16    0       1.812503      5.445924      3.617936    -0.215290   -0.315162   -0.078894
            17    0       3.634001      0.002460      0.010337    -0.286176   -0.004489   -0.064601
            18    0       3.632582      1.752897      1.793520    -0.142434    0.315674    0.041564
            19    0       5.398283     -0.023343      1.795369     0.163006   -0.118528    0.161188
            20    0       5.468462      1.774145      0.034564    -0.313277    0.218955   -0.239091
            21    0       3.550056     -0.011892      3.615927     0.488684    0.134168   -0.001665
            22    0       3.631054      1.830593      5.443447    -0.075546   -0.074654   -0.125800
            23    0       5.402519     -0.016649      5.445387     0.079781    0.055257   -0.317922
            24    0       5.407833      1.759278      3.569379    -0.115761    0.212617    0.191988
            25    0       3.577488      3.627639      0.004971     0.375643   -0.158718   -0.112152
            26    0       3.634652      5.399836      1.810552    -0.174311    0.154882   -0.099582
            27    0       5.437299      3.598467      1.821070    -0.175470   -0.179608   -0.247262
            28    0       5.391499      5.401692     -0.013514     0.227201   -0.089248    0.152034
            29    0       3.567380      3.627172      3.593466     0.323804   -0.214524    0.241466
            30    0       3.610389      5.431935      5.430948    -0.035858   -0.232830   -0.105241
            31    0       5.438695      3.606470      5.399735    -0.184342    0.032268    0.029754
            32    0       5.412248      5.354932      3.558626     0.066711    0.484281    0.495618
 Energy
          0.079315855610
 PlusStress:  xx          yy          zz          yz          xz          xy
        -4.07159    -4.15158    -4.02373     0.17994     0.00037    -0.11965
END_CFG

BEGIN_CFG
 Size
    32
 Supercell
         7.220000      0.000000      0.000000
         0.000000      7.220000      0.000000
         0.000000      0.000000      7.220000
 AtomData:  id type       cartes_x      cartes_y      cartes_z           fx          fy          fz
             1    0       0.016029     -0.055095      0.038125    -0.131049    0.241297   -0.484327
             2    0       0.049697      1.702272      1.737646    -0.291921    0.595887    0.702968
             3    0       1.812808     -0.016626      1.804577     0.177184    0.096783    0.085331
             4    0       1.760496      1.850138      0.039165     0.376695   -0.476489   -0.597896
             5    0       0.003227      0.058418      3.634860    -0.026117   -0.524969   -0.107145
             6    0      -0.045261      1.823584      5.365560     0.250538   -0.240985    0.484705
             7    0       1.850920     -0.000503      5.406996    -0.348969    0.387232    0.397136
             8    0       1.769972      1.869095      3.601806     0.363765   -0.449492    0.028801
             9    0      -0.022477      3.592397      0.028691     0.141377    0.285311   -0.040365
            10    0       0.019418      5.436023      1.828604    -0.091664   -0.249654    0.059501
            11    0       1.916594      3.589008      1.778449    -0.893994    0.189923    0.241516
            12    0       1.763053      5.446996      0.059501     0.446096   -0.305277   -0.340226
            13    0      -0.005041      3.565842      3.565154     0.190362    0.270914   -0.011495
            14    0       0.033822      5.453896      5.442706    -0.264369   -0.253330   -0.309649
            15    0       1.769236      3.623079      5.421664     0.071760    0.071439    0.055242
            16    0       1.815228      5.459886      3.621546    -0.321966   -0.470903   -0.107473
            17    0       3.644635      0.003692      0.015179    -0.412764   -0.020527   -0.105948
            18    0       3.643200      1.728370      1.787983    -0.226368    0.474300    0.059364
            19    0       5.390706     -0.035610      1.791332     0.256331   -0.176018    0.227604
            20    0       5.493689      1.759785      0.050677    -0.461790    0.295150   -0.361655
            21    0       3.522413     -0.017214      3.618926     0.732483    0.221599   -0.023480
            22    0       3.641225      1.843050      5.457068    -0.106734   -0.114052   -0.179971
            23    0       5.396643     -0.024719      5.459040     0.128158    0.102035   -0.446055
            24    0       5.403671      1.737449      3.550006    -0.156061    0.310113    0.289346
            25    0       3.563049      3.635673      0.006924     0.543937   -0.211407   -0.196695
            26    0       3.646151      5.392985      1.812859    -0.264880    0.228429   -0.150679
            27    0       5.447610      3.591822      1.827936    -0.267473   -0.272541   -0.379618
            28    0       5.380845      5.394602     -0.019549     0.333133   -0.128094    0.219058
            29    0       3.547649      3.634711      3.586363     0.479539   -0.295615    0.376871
            30    0       3.610406      5.439280      5.438408    -0.060929   -0.338164   -0.158939
            31    0       5.449652      3.604836      5.392216    -0.258812    0.065380    0.043699
            32    0       5.411191      5.327220      3.535341     0.094499    0.691725    0.730475
 Energy
          0.374859634834
 PlusStress:  xx          yy          zz          yz          xz          xy
        -2.93382    -3.12273    -2.82535     0.38776    -0.00136    -0.24877
END_CFG

BEGIN_CFG
 Size
    32
 Supercell
         7.220000      0.000000      0.000000
         0.000000      7.220000      0.000000
         0.000000      0.000000      7.220000
 AtomData:  id type       cartes_x      cartes_y      cartes_z           fx          fy          fz
             1    0       0.020623     -0.072007      0.047884    -0.201952    0.303902   -0.620703
             2    0       0.064579      1.671592      1.719298    -0.403477    0.767131    0.965139
             3    0       1.816455     -0.021564      1.804991     0.232809    0.122336    0.107925
             4    0       1.747874      1.862317      0.048634     0.517728   -0.595741   -0.790821
             5    0       0.004075      0.074757      3.642531    -0.003509   -0.677302   -0.143946
             6    0      -0.058856      1.828305      5.351986     0.314145   -0.284180    0.615284
             7    0       1.864174      0.001744      5.406694    -0.461032    0.475801    0.516162
             8    0       1.760479      1.887812      3.599270     0.469362   -0.599945    0.038530
             9    0      -0.029115      3.588260      0.037995     0.182814    0.366193   -0.061489
            10    0       0.025347      5.441503      1.836821    -0.130036   -0.314387    0.087189
            11    0       1.948479      3.583175      1.771031    -1.166725    0.230531    0.313834
            12    0       1.751714      5.455870      0.077288     0.595998   -0.424387   -0.449439
            13    0      -0.005542      3.552738      3.550125     0.219018    0.347560   -0.000138
            14    0       0.043476      5.465287      5.450035    -0.329661   -0.315588   -0.381299
            15    0       1.757707      3.627929      5.424246     0.092805    0.078264    0.066018
            16    0       1.816724      5.472053      3.624773    -0.418704   -0.615623   -0.125835
            17    0       3.653703      0.004863      0.019588    -0.519115   -0.044513   -0.151769
            18    0       3.652950      1.705674      1.782677    -0.312577    0.627727    0.074347
            19    0       5.384124     -0.048583      1.788163     0.350990   -0.222001    0.278949
            20    0       5.517156      1.746549      0.065379    -0.601175    0.349375   -0.478214
            21    0       3.497559     -0.021690      3.621866     0.963891    0.310673   -0.051469
            22    0       3.651000      1.855090      5.470010    -0.133767   -0.154942   -0.229081
            23    0       5.391246     -0.032387      5.470995     0.175799    0.152502   -0.552043
            24    0       5.398900      1.716819      3.531762    -0.181107    0.400857    0.386376
            25    0       3.550692      3.642894      0.008109     0.695150   -0.251064   -0.291125
            26    0       3.656640      5.386997      1.814594    -0.352874    0.290844   -0.195636
            27    0       5.456898      3.584109      1.833359    -0.359648   -0.356564   -0.504564
            28    0       5.371474      5.387015     -0.024758     0.428254   -0.157019    0.275940
            29    0       3.529782      3.641113      3.580722     0.625896   -0.355783    0.511582
            30    0       3.610177      5.445326      5.445248    -0.089411   -0.428401   -0.211500
            31    0       5.459622      3.603439      5.384832    -0.318805    0.104248    0.057153
            32    0       5.410494      5.302122      3.514867     0.118915    0.869498    0.944641
 Energy
          0.735683117006
 PlusStress:  xx          yy          zz          yz          xz          xy
        -1.54891    -1.88691    -1.36022     0.63616    -0.00234    -0.38806
END_CFG

BEGIN_CFG
 Size
    32
 Supercell
         7.220000      0.000000      0.000000
         0.000000      7.220000      0.000000
         0.000000      0.000000      7.220000
 AtomData:  id type       cartes_x      cartes_y      cartes_z           fx          fy          fz
             1    0       0.024425     -0.087779      0.055255    -0.273312    0.359490   -0.728742
             2    0       0.077924      1.643817      1.704640    -0.506030    0.914956    1.203710
             3    0       1.820985     -0.026016      1.805850     0.275524    0.141900    0.122844
             4    0       1.737237      1.872249      0.055064     0.644649   -0.685280   -0.954378
             5    0       0.004913      0.088534      3.649656     0.026143   -0.808414   -0.176948
             6    0      -0.071287      1.831974      5.340738     0.368723   -0.310269    0.721015
             7    0       1.875686      0.005841      5.408360    -0.559582    0.535547    0.611068
             8    0       1.752773      1.904251      3.596892     0.560248   -0.741568    0.052641
             9    0      -0.035056      3.585538      0.047034     0.223342    0.429673   -0.085099
            10    0       0.030760      5.445778      1.845392    -0.165396   -0.365670    0.106955
            11    0       1.975955      3.578226      1.764798    -1.403948    0.256031    0.373172
            12    0       1.742663      5.463099      0.093340     0.729627   -0.538323   -0.549285
            13    0      -0.005222      3.540942      3.535105     0.228618    0.412705    0.021673
            14    0       0.051867      5.475443      5.455902    -0.382519   -0.367074   -0.438188
            15    0       1.746506      3.633104      5.427096     0.112609    0.074639    0.071083
            16    0       1.816633      5.481882      3.627553    -0.493940   -0.737177   -0.132176
            17    0       3.660805      0.005886      0.023378    -0.598172   -0.074758   -0.199135
            18    0       3.661501      1.685392      1.777659    -0.395139    0.768883    0.083480
            19    0       5.378899     -0.062448      1.786054     0.438166   -0.249606    0.311553
            20    0       5.538340      1.734642      0.078219    -0.727298    0.383775   -0.580465
            21    0       3.476357     -0.024981      3.624646     1.167307    0.388201   -0.077181
            22    0       3.660283      1.866561      5.482091    -0.156925   -0.197519   -0.274034
            23    0       5.386505     -0.039454      5.480860     0.217185    0.199575   -0.634641
            24    0       5.393425      1.697736      3.515023    -0.188966    0.482051    0.481018
            25    0       3.540980      3.649156      0.008164     0.820184   -0.279957   -0.381445
            26    0       3.665784      5.382107      1.815590    -0.433565    0.334954   -0.228035
            27    0       5.464817      3.575007      1.836874    -0.449405   -0.419460   -0.607615
            28    0       5.363752      5.378816     -0.028927     0.508242   -0.171397    0.319357
            29    0       3.514338      3.646151      3.577056     0.756801   -0.393838    0.633465
            30    0       3.609587      5.449733      5.451269    -0.119263   -0.496096   -0.259886
            31    0       5.468381      3.602423      5.377624    -0.362798    0.143763    0.070284
            32    0       5.410247      5.280295      3.498012     0.138892    1.010263    1.123931
 Energy
          1.112125947086
 PlusStress:  xx          yy          zz          yz          xz          xy
        -0.11666    -0.61713     0.16477     0.88532     0.00634    -0.52834
END_CFG

BEGIN_CFG
 Size
    32
 Supercell
         7.220000      0.000000      0.000000
         0.000000      7.220000      0.000000
         0.000000      0.000000      7.220000
 AtomData:  id type       cartes_x      cartes_y      cartes_z           fx          fy          fz
             1    0       0.027162     -0.102201      0.059838    -0.334078    0.410581   -0.796353
             2    0       0.089350      1.619495      1.694561    -0.586649    1.033475    1.385972
             3    0       1.826554     -0.029900      1.807212     0.297258    0.154090    0.126683
             4    0       1.729054      1.879609      0.057856     0.738979   -0.742010   -1.067478
             5    0       0.005859      0.099265      3.656109     0.056400   -0.912330   -0.202660
             6    0      -0.082358      1.834503      5.332204     0.414251   -0.320801    0.795115
             7    0       1.885088      0.012012      5.412347    -0.635993    0.562096    0.668984
             8    0       1.747205      1.917883      3.594728     0.634512   -0.866587    0.074059
             9    0      -0.040150      3.584470      0.055717     0.264283    0.469611   -0.110203
            10    0       0.035515      5.448656      1.854393    -0.193666   -0.399724    0.109931
            11    0       1.998157      3.574253      1.759964    -1.587398    0.264257    0.412111
            12    0       1.736416      5.468242      0.107278     0.834891   -0.635372   -0.634813
            13    0      -0.004050      3.530695      3.520181     0.220823    0.460747    0.055072
            14    0       0.058796      5.484157      5.460087    -0.423053   -0.408810   -0.480926
            15    0       1.735706      3.638589      5.430235     0.131487    0.060004    0.069452
            16    0       1.814676      5.488916      3.629869    -0.535141   -0.822888   -0.125751
            17    0       3.665647      0.006649      0.026364    -0.643765   -0.108879   -0.243877
            18    0       3.668543      1.668060      1.772967    -0.465461    0.889978    0.085872
            19    0       5.375361     -0.077309      1.785125     0.509046   -0.249119    0.323007
            20    0       5.556762      1.724191      0.088802    -0.834550    0.399463   -0.661633
            21    0       3.459560     -0.026795      3.627172     1.323664    0.441025   -0.090676
            22    0       3.668993      1.877307      5.493148    -0.176739   -0.242378   -0.315846
            23    0       5.382571     -0.045734      5.488331     0.247074    0.236951   -0.692701
            24    0       5.387219      1.680510      3.500151    -0.178103    0.551308    0.570895
            25    0       3.534371      3.654349      0.006751     0.909474   -0.301803   -0.450179
            26    0       3.673279      5.378476      1.815729    -0.501309    0.354125   -0.241440
            27    0       5.471031      3.564279      1.838100    -0.533439   -0.448140   -0.673145
            28    0       5.357987      5.369950     -0.031894     0.569209   -0.167568    0.346169
            29    0       3.501813      3.649680      3.575822     0.865137   -0.409999    0.728569
            30    0       3.608519      5.452242      5.456290    -0.147804   -0.535945   -0.302352
            31    0       5.475766      3.601931      5.370635    -0.389584    0.178587    0.083400
            32    0       5.410512      5.262255      3.485453     0.150247    1.106055    1.254741
 Energy
          1.450008816178
 PlusStress:  xx          yy          zz          yz          xz          xy
         1.15614     0.51693     1.53729     1.09973     0.03449    -0.65566
END_CFG

BEGIN_CFG
 Size
    32
 Supercell
         7.220000      0.000000      0.000000
         0.000000      7.220000      0.000000
         0.000000      0.000000      7.220000
 AtomData:  id type       cartes_x      cartes_y      cartes_z           fx          fy          fz
             1    0       0.028605     -0.115082      0.061392    -0.373344    0.457397   -0.812384
             2    0       0.098556      1.599049      1.689728    -0.633763    1.116249    1.482035
             3    0       1.833234     -0.033165      1.809093     0.291152    0.157966    0.116930
             4    0       1.723667      1.884195      0.056600     0.785022   -0.765491   -1.111774
             5    0       0.007032      0.106571      3.661788     0.082137   -0.983036   -0.217698
             6    0      -0.091907      1.835860      5.326653     0.451013   -0.317714    0.832485
             7    0       1.892096      0.020356      5.418869    -0.683152    0.552595    0.678821
             8    0       1.744060      1.928243      3.592860     0.688507   -0.967043    0.104014
             9    0      -0.044245      3.585205      0.063946     0.306593    0.481265   -0.135339
            10    0       0.039501      5.450013      1.863836    -0.210942   -0.414428    0.088247
            11    0       2.014422      3.571280      1.756668    -1.700888    0.256176    0.424594
            12    0       1.733378      5.470925      0.118775     0.899557   -0.703289   -0.700413
            13    0      -0.002059      3.522174      3.505478     0.198797    0.487926    0.098319
            14    0       0.064111      5.491266      5.462430    -0.451719   -0.441538   -0.509315
            15    0       1.725380      3.644328      5.433656     0.149921    0.034209    0.060520
            16    0       1.810705      5.492837      3.631747    -0.532037   -0.862614   -0.107402
            17    0       3.668064      0.007028      0.028370    -0.651695   -0.143893   -0.281056
            18    0       3.673810      1.654132      1.768613    -0.516479    0.984159    0.080566
            19    0       5.373782     -0.093160      1.785414     0.556184   -0.214027    0.312864
            20    0       5.572021      1.715252      0.096815    -0.915909    0.397853   -0.715471
            21    0       3.447743     -0.026933      3.629396     1.416824    0.457337   -0.083270
            22    0       3.677061      1.887164      5.503029    -0.192992   -0.288873   -0.355281
            23    0       5.379556     -0.051082      5.493199     0.261331    0.259867   -0.725659
            24    0       5.380329      1.665409      3.487489    -0.148075    0.606263    0.652894
            25    0       3.531189      3.658393      0.003615     0.952997   -0.320023   -0.479131
            26    0       3.678866      5.376170      1.814965    -0.551960    0.344091   -0.232322
            27    0       5.475228      3.551822      1.836802    -0.607667   -0.432398   -0.688586
            28    0       5.354410      5.360430     -0.033559     0.608050   -0.142873    0.354593
            29    0       3.492611      3.651638      3.577371     0.942403   -0.407047    0.783151
            30    0       3.606860      5.452701      5.460149    -0.171925   -0.544557   -0.337251
            31    0       5.481680      3.602093      5.363909    -0.398395    0.203606    0.097011
            32    0       5.411322      5.248353      3.477679     0.150455    1.151887    1.325305
 Energy
          1.701365534936
 PlusStress:  xx          yy          zz          yz          xz          xy
         2.09176     1.36273     2.55616     1.24811     0.08896    -0.75723
END_CFG

BEGIN_CFG
 Size
    32
 Supercell
         7.220000      0.000000      0.000000
         0.000000      7.220000      0.000000
         0.000000      0.000000      7.220000
 AtomData:  id type       cartes_x      cartes_y      cartes_z           fx          fy          fz
             1    0       0.028606     -0.126245      0.059868    -0.382591    0.499014   -0.771790
             2    0       0.105366      1.582773      1.690481    -0.643130    1.160014    1.472818
             3    0       1.840996     -0.035789      1.811456     0.253418    0.153179    0.093161