BEGIN_CFG
 Size
    3
 AtomData:  id type       cartes_x      cartes_y      cartes_z           fx          fy          fz
             1    0      -0.000001     -0.409818      0.000000    -0.000014   -0.016472    0.000000
             2    0      -1.072560      0.204912     -0.000000     0.013136    0.008232    0.000000
             3    0       1.072561      0.204906     -0.000000    -0.013123    0.008240    0.000000
 Energy
       -324.577038140942
 PlusStress:  xx          yy          zz          yz          xz          xy
        -0.02816     0.01013     0.00000     0.00000     0.00000     0.00001
END_CFG

BEGIN_CFG
 Size
    3
 AtomData:  id type       cartes_x      cartes_y      cartes_z           fx          fy          fz
             1    0       0.296441      0.473681      0.080715    -2.473274   -3.255464   -1.520217
             2    0      -0.125147      0.843848     -0.992927    -1.715772   -0.272993   -2.802701
             3    0       0.976676      1.225736      0.625006     4.189046    3.528457    4.322918
 Energy
       -324.206156211938
 PlusStress:  xx          yy          zz          yz          xz          xy
         3.57288     2.55254     5.36202     2.21360     4.12219     2.51527
END_CFG

BEGIN_CFG
 Size
    3
 AtomData:  id type       cartes_x      cartes_y      cartes_z           fx          fy          fz
             1    0       0.313562      0.936607     -0.364877    -1.462974   -2.596455    1.043631
             2    0      -0.530454     -0.012698     -0.368616    -0.181836    1.162579   -1.510414
             3    0       1.035178      0.864170      0.614551     1.644809    1.433876    0.466784
 Energy
       -324.368118612183
 PlusStress:  xx          yy          zz          yz          xz          xy
         1.34039    -1.20751     0.46283     1.40003     1.61165     0.05347
END_CFG

BEGIN_CFG
 Size
    3
 AtomData:  id type       cartes_x      cartes_y      cartes_z           fx          fy          fz
             1    0       0.426403      0.658976     -0.680193    -0.096639    1.013235    2.122517
             2    0      -0.694937      0.276329     -1.055208     0.947243    0.519496    0.721014
             3    0       0.612583      1.253184      0.475081    -0.850604   -1.532731   -2.843532
 Energy
       -324.426315795741
 PlusStress:  xx          yy          zz          yz          xz          xy
        -1.22055    -1.10954    -3.55545    -1.96554    -1.33791    -0.86790
END_CFG

BEGIN_CFG
 Size
    3
 AtomData:  id type       cartes_x      cartes_y      cartes_z           fx          fy          fz
             1    0       0.036670      1.103366     -0.938708     1.492969    0.401726    1.726760
             2    0      -1.037636      0.823263     -1.399960    -1.478160   -0.386755   -0.752752
             3    0       0.186018      1.155976      0.316142    -0.014810   -0.014971   -0.974008
 Energy
       -324.534313056012
 PlusStress:  xx          yy          zz          yz          xz          xy
         1.58578     0.10754    -0.87503     0.15961     0.66322     0.41326
END_CFG

BEGIN_CFG
 Size
    3
 AtomData:  id type       cartes_x      cartes_y      cartes_z           fx          fy          fz
             1    0       0.027396      2.034492     -1.023639     4.174486   -1.418134    4.853496
             2    0      -0.762376      2.232268     -1.844995    -3.674751    0.195459   -2.826048
             3    0      -0.109861      1.224885     -0.006972    -0.499735    1.222675   -2.027448
 Energy
       -324.273539722346
 PlusStress:  xx          yy          zz          yz          xz          xy
         2.97081    -0.95123     0.25995     1.08251     2.51022    -0.32219
END_CFG

BEGIN_CFG
 Size
    3
 AtomData:  id type       cartes_x      cartes_y      cartes_z           fx          fy          fz
             1    0      -0.550876      2.690525     -0.762151     4.382505   -1.018482    0.093187
             2    0       0.135994      2.912316     -1.791029    -2.017091    0.611347   -0.432963
             3    0       0.216670      2.191761      0.130689    -2.365414    0.407135    0.339776
 Energy
       -324.269728316033
 PlusStress:  xx          yy          zz          yz          xz          xy
        -3.20104    -0.06747     0.74883    -0.26550    -0.03660     0.73241
END_CFG

BEGIN_CFG
 Size
    3
 AtomData:  id type       cartes_x      cartes_y      cartes_z           fx          fy          fz
             1    0      -0.569946      3.146818     -0.440408     1.096124    3.241916   -2.652456
             2    0       0.026926      3.737192     -1.447633    -1.283122   -0.794903    1.988840
             3    0      -0.365984      1.991557     -0.279748     0.186998   -2.447013    0.663616
 Energy
       -324.403781485189
 PlusStress:  xx          yy          zz          yz          xz          xy
        -0.72772     2.35765    -1.89659     0.40751     1.32244    -0.97355
END_CFG

BEGIN_CFG
 Size
    3
 AtomData:  id type       cartes_x      cartes_y      cartes_z           fx          fy          fz
             1    0      -0.225386      2.980188     -0.570369     0.607773    1.442173   -0.939843
             2    0       0.603251      3.446725     -1.384763    -0.383952    0.281084    0.222516
             3    0      -0.137588      1.815217     -0.278514    -0.223821   -1.723257    0.717327
 Energy
       -324.535971142166
 PlusStress:  xx          yy          zz          yz          xz          xy
        -0.33781     2.13868     0.02814    -0.73185     0.24736     0.08162
END_CFG

BEGIN_CFG
 Size
    3
 AtomData:  id type       cartes_x      cartes_y      cartes_z           fx          fy          fz
             1    0      -0.758600      3.487048     -0.542667    -3.009816    0.105784    2.037719
             2    0       0.118978      4.128993     -1.048519     1.978114   -0.015437   -1.332134
             3    0      -0.956002      2.260383     -0.570906     1.031702   -0.090348   -0.705585
 Energy
       -324.411230967710
 PlusStress:  xx          yy          zz          yz          xz          xy
         1.53229     0.10092     0.69379     0.01036    -1.02977     0.00429
END_CFG

BEGIN_CFG
 Size
    3
 AtomData:  id type       cartes_x      cartes_y      cartes_z           fx          fy          fz
             1    0      -0.648745      2.936533     -0.273820    -1.019670    4.093214   -4.614805
             2    0      -1.210334      3.352671     -1.393970     1.668727    0.935965    1.648488
             3    0      -1.027257      1.883381      0.002480    -0.649058   -5.029179    2.966316
 Energy
       -324.089502580531
 PlusStress:  xx          yy          zz          yz          xz          xy
        -0.69146     5.68598    -1.02696    -2.43798    -2.04856     1.37798
END_CFG

BEGIN_CFG
 Size
    3
 AtomData:  id type       cartes_x      cartes_y      cartes_z           fx          fy          fz
             1    0      -1.031929      2.462962     -0.571308     1.445756   -0.851742   -1.620190
             2    0      -0.813191      3.658781     -0.614248     0.091859    1.500984    0.134416
             3    0      -1.834888      1.981834      0.182892    -1.537615   -0.649242    1.485774
 Energy
       -324.520626151947
 PlusStress:  xx          yy          zz          yz          xz          xy
         1.25473     2.10727     1.11480    -0.55411    -1.16361     0.84964
END_CFG

BEGIN_CFG
 Size
    3
 AtomData:  id type       cartes_x      cartes_y      cartes_z           fx          fy          fz
             1    0      -0.466552      2.683762      0.736332     1.567391    1.223257   -0.549769
             2    0      -0.206753      3.528922     -0.169900    -0.520976   -0.857808    0.755258
             3    0      -1.527975      2.105268      0.791567    -1.046416   -0.365448   -0.205489
 Energy
       -324.538374278306
 PlusStress:  xx          yy          zz          yz          xz          xy
         0.97534    -0.51358    -0.69579     0.75719     0.41433     0.16504
END_CFG

BEGIN_CFG
 Size
    3
 AtomData:  id type       cartes_x      cartes_y      cartes_z           fx          fy          fz
             1    0      -0.626678      2.496187      1.113308    -0.486759    4.164225   -0.568038
             2    0      -0.112222      3.303811      0.220239    -0.996288   -2.489365    1.994809
             3    0      -1.409150      3.058872      1.958120     1.483047   -1.674860   -1.426771
 Energy
       -324.344717250090
 PlusStress:  xx          yy          zz          yz          xz          xy
        -1.67299    -2.95289    -2.98686     0.80823     2.14265     0.02986
END_CFG

BEGIN_CFG
 Size
    3
 AtomData:  id type       cartes_x      cartes_y      cartes_z           fx          fy          fz
             1    0      -1.530954      2.821997      0.556998    -0.232778    1.995835    2.923054
             2    0      -1.661328      3.862942     -0.111575     0.143131   -1.162689    0.137595
             3    0      -1.543795      2.970257      1.862755     0.089647   -0.833146   -3.060649
 Energy
       -324.414755344806
 PlusStress:  xx          yy          zz          yz          xz          xy
        -0.01981    -1.33382    -4.08846    -0.31054     0.02136     0.16228
END_CFG

BEGIN_CFG
 Size
    3
 AtomData:  id type       cartes_x      cartes_y      cartes_z           fx          fy          fz
             1    0      -1.272849      2.837690      0.128301     0.070243    0.932535   -2.689716
             2    0      -1.814463      3.912207     -0.172499    -0.135180    0.413624   -0.445321
             3    0      -1.313543      2.468238      1.251743     0.064937   -1.346160    3.135037
 Energy
       -324.489308664232
 PlusStress:  xx          yy          zz          yz          xz          xy
         0.07057     0.94179     3.65598    -1.63675     0.11361    -0.16924
END_CFG

BEGIN_CFG
 Size
    3
 AtomData:  id type       cartes_x      cartes_y      cartes_z           fx          fy          fz
             1    0      -0.793206      2.411508      0.578418     1.978562   -4.177782    4.535272
             2    0      -1.208001      3.093758     -0.239380    -2.212022    3.981533   -4.596946
             3    0      -1.370216      1.316653      0.844914     0.233460    0.196248    0.061674
 Energy
       -324.301764475121
 PlusStress:  xx          yy          zz          yz          xz          xy
         0.78283     2.50154     3.77581    -3.20379     1.87120    -1.76476
END_CFG

BEGIN_CFG
 Size
    3
 AtomData:  id type       cartes_x      cartes_y      cartes_z           fx          fy          fz
             1    0      -0.619516      2.597085      1.280989     0.243550    0.036415    0.625958
             2    0      -0.444276      3.767255      0.943246     0.050935    0.414299   -0.149274
             3    0      -1.117331      1.791028      0.505586    -0.294485   -0.450714   -0.476684
 Energy
       -324.571442172090
 PlusStress:  xx          yy          zz          yz          xz          xy
         0.15552     0.84810     0.42004     0.20956     0.21114     0.29697
END_CFG

BEGIN_CFG
 Size
    3
 AtomData:  id type       cartes_x      cartes_y      cartes_z           fx          fy          fz
             1    0      -0.308262      4.062445      0.956809    -0.401357    1.598528    0.800814
             2    0      -0.946340      5.070332      1.320431     0.717577    0.490284    0.554138
             3    0      -0.921450      3.288430      0.272696    -0.316220   -2.088812   -1.354952
 Energy
       -324.485836230519
 PlusStress:  xx          yy          zz          yz          xz          xy
        -0.26397     2.11092     1.12844     1.60726     0.47726     0.96800
END_CFG

BEGIN_CFG
 Size
    3
 AtomData:  id type       cartes_x      cartes_y      cartes_z           fx          fy          fz
             1    0      -0.445297      3.784581      0.903909    -4.272990    2.604638    2.617105
             2    0      -1.050338      4.720568      1.714042     2.868994   -2.490302   -2.331834
             3    0      -1.276238      3.012784      0.422164     1.403996   -0.114336   -0.285271
 Energy
       -324.091451752112
 PlusStress:  xx          yy          zz          yz          xz          xy
        -2.90250    -2.24265    -1.75167    -1.96240     1.64790     1.60174
END_CFG

BEGIN_CFG
 Size
    3
 AtomData:  id type       cartes_x      cartes_y      cartes_z           fx          fy          fz
             1    0      -1.710566      4.123183      0.675482     1.813916   -1.412464    0.749768
             2    0      -0.917973      5.058984      0.771191    -0.525130    0.900442   -0.290458
             3    0      -1.225363      2.995349      0.988035    -1.288785    0.512023   -0.459310
 Energy
       -324.493468476826
 PlusStress:  xx          yy          zz          yz          xz          xy
        -1.04154     0.26516    -0.17136     0.24621    -0.45307     0.96212
END_CFG

