BEGIN_CFG
 Size
    27
 Supercell
         0.000000      5.415000      5.415000
         5.415000      0.000000      5.415000
         5.415000      5.415000      0.000000
 AtomData:  id type       cartes_x      cartes_y      cartes_z           fx          fy          fz
             1    0       0.000000      0.000000      0.000000    -0.000000   -0.000000   -0.000000
             2    0       1.805000      1.805000      0.000000     0.000000    0.000000   -0.000000
             3    0       3.610000      3.610000      0.000000    -0.000000   -0.000000   -0.000000
             4    0       1.805000      0.000000      1.805000     0.000000   -0.000000    0.000000
             5    0       3.610000      1.805000      1.805000    -0.000000    0.000000    0.000000
             6    0       5.415000      3.610000      1.805000     0.000000   -0.000000    0.000000
             7    0       3.610000      0.000000      3.610000    -0.000000   -0.000000   -0.000000
             8    0       5.415000      1.805000      3.610000     0.000000    0.000000    0.000000
             9    0       7.220000      3.610000      3.610000    -0.000000    0.000000    0.000000
            10    0       0.000000      1.805000      1.805000    -0.000000    0.000000    0.000000
            11    0       1.805000      3.610000      1.805000     0.000000   -0.000000    0.000000
            12    0       3.610000      5.415000      1.805000     0.000000    0.000000    0.000000
            13    0       1.805000      1.805000      3.610000     0.000000    0.000000   -0.000000
            14    0       3.610000      3.610000      3.610000    -0.000000    0.000000   -0.000000
            15    0       5.415000      5.415000      3.610000     0.000000   -0.000000    0.000000
            16    0       3.610000      1.805000      5.415000    -0.000000    0.000000    0.000000
            17    0       5.415000      3.610000      5.415000    -0.000000    0.000000    0.000000
            18    0       7.220000      5.415000      5.415000    -0.000000    0.000000    0.000000
            19    0       0.000000      3.610000      3.610000    -0.000000   -0.000000   -0.000000
            20    0       1.805000      5.415000      3.610000     0.000000    0.000000    0.000000
            21    0       3.610000      7.220000      3.610000     0.000000   -0.000000    0.000000
            22    0       1.805000      3.610000      5.415000     0.000000   -0.000000    0.000000
            23    0       3.610000      5.415000      5.415000     0.000000   -0.000000    0.000000
            24    0       5.415000      7.220000      5.415000     0.000000   -0.000000    0.000000
            25    0       3.610000      3.610000      7.220000     0.000000    0.000000   -0.000000
            26    0       5.415000      5.415000      7.220000     0.000000    0.000000   -0.000000
            27    0       7.220000      7.220000      7.220000    -0.000000    0.000000   -0.000000
 Energy
         -0.150985349772
 PlusStress:  xx          yy          zz          yz          xz          xy
        -4.04273    -4.04273    -4.04273    -0.00000    -0.00000    -0.00000
END_CFG

BEGIN_CFG
 Size
    27
 Supercell
         0.000000      5.415000      5.415000
         5.415000      0.000000      5.415000
         5.415000      5.415000      0.000000
 AtomData:  id type       cartes_x      cartes_y      cartes_z           fx          fy          fz
             1    0       0.005511     -0.018809      0.013573    -0.092249    0.183756   -0.117548
             2    0       1.822011      1.769714     -0.023551    -0.181792    0.207831    0.212766
             3    0       3.612312      3.604280     -0.000304     0.021623   -0.006400   -0.070632
             4    0       1.789572      0.015905      1.819067     0.099449   -0.115692   -0.019157
             5    0       3.611194      1.825387      1.813455     0.055078   -0.207683   -0.081135
             6    0       5.399459      3.616669      1.787658     0.128585   -0.065556    0.109411
             7    0       3.625888     -0.000903      3.606657    -0.060319    0.025092    0.035227
             8    0       5.402685      1.827111      3.607205     0.134346   -0.196185    0.027999
             9    0       7.212253      3.603631      3.619627     0.000803    0.076386   -0.111617
            10    0       0.006609      1.812465      1.812792    -0.085830    0.008961   -0.096555
            11    0       1.843734      3.602650      1.795736    -0.243436   -0.007472    0.071566
            12    0       3.595282      5.426141      1.825419     0.152415   -0.027629   -0.186543
            13    0       1.802939      1.789805      3.595088     0.088862    0.151624    0.206399
            14    0       3.621767      3.623443      3.619823    -0.054168   -0.094539    0.008470
            15    0       5.402964      5.419199      3.612110     0.024927   -0.061833   -0.011644
            16    0       3.613955      1.820761      5.419044    -0.020951   -0.135381   -0.015825
            17    0       5.427279      3.611222      5.420229    -0.023638   -0.036500    0.066255
            18    0       7.231417      5.388646      5.409218     0.000916    0.214528    0.009124
            19    0      -0.008507      3.598445      3.605024     0.119673    0.026434    0.025335
            20    0       1.832038      5.399341      3.627512    -0.316393   -0.012835   -0.132504
            21    0       3.579564      7.213943      3.612944     0.255797    0.073610   -0.027252
            22    0       1.815602      3.622863      5.429348    -0.131181   -0.185772   -0.086516
            23    0       3.603693      5.406638      5.430517     0.134342    0.044927    0.046940
            24    0       5.411540      7.196928      5.394503     0.068676    0.115094    0.149608
            25    0       3.593371      3.618992      7.222576     0.098221   -0.044683    0.054704
            26    0       5.427488      5.407273      7.222867     0.026488    0.044669    0.027822
            27    0       7.231314      7.214405      7.228261    -0.200242    0.025248   -0.094695
 Energy
         -0.094832973642
 PlusStress:  xx          yy          zz          yz          xz          xy
        -3.84792    -3.81524    -3.83604     0.03342    -0.01914    -0.03144
END_CFG

BEGIN_CFG
 Size
    27
 Supercell
         0.000000      5.415000      5.415000
         5.415000      0.000000      5.415000
         5.415000      5.415000      0.000000
 AtomData:  id type       cartes_x      cartes_y      cartes_z           fx          fy          fz
             1    0       0.010670     -0.036919      0.026694    -0.176304    0.363908   -0.237667
             2    0       1.838319      1.735223     -0.046286    -0.381182    0.424697    0.448488
             3    0       3.614714      3.598537     -0.000882     0.047775   -0.021225   -0.159488
             4    0       1.774518      0.031368      1.833060     0.198090   -0.246086   -0.059545
             5    0       3.612608      1.844980      1.821605     0.115877   -0.426709   -0.156974
             6    0       5.384409      3.623086      1.770731     0.249073   -0.131356    0.234861
             7    0       3.641549     -0.001705      3.603450    -0.117179    0.051874    0.068656
             8    0       5.390878      1.848471      3.604515     0.253548   -0.364533    0.050991
             9    0       7.204505      3.597552      3.628827     0.006901    0.142725   -0.220072
            10    0       0.012891      1.819966      1.820215    -0.174716    0.013386   -0.192871
            11    0       1.881531      3.595271      1.786744    -0.496810    0.002407    0.147510
            12    0       3.581147      5.437179      1.845118     0.309992   -0.063007   -0.373138
            13    0       1.801212      1.775186      3.580964     0.171893    0.298879    0.411212
            14    0       3.633329      3.636516      3.629682    -0.098970   -0.189716    0.012826
            15    0       5.391031      5.423169      3.614181     0.053648   -0.125656   -0.032003
            16    0       3.617834      1.836008      5.423029    -0.039762   -0.256778   -0.027739
            17    0       5.439468      3.612303      5.425712    -0.056618   -0.069415    0.126954
            18    0       7.242834      5.363113      5.403474    -0.001566    0.425468    0.020344
            19    0      -0.016558      3.586991      3.600143     0.219938    0.054925    0.059072
            20    0       1.857859      5.383632      3.644518    -0.619066   -0.055052   -0.274349
            21    0       3.550108      7.208171      3.615780     0.538456    0.159465   -0.060200
            22    0       1.825698      3.635011      5.443371    -0.256041   -0.356870   -0.157966
            23    0       3.597904      5.398446      5.446220     0.282350    0.088595    0.093631
            24    0       5.408347      7.174294      5.374578     0.120167    0.229847    0.296352
            25    0       3.577124      3.627814      7.225362     0.195401   -0.090496    0.119775
            26    0       5.440079      5.399716      7.225841     0.050326    0.083596    0.049397
            27    0       7.241859      7.208907      7.236155    -0.395221    0.057127   -0.188058
 Energy
          0.068484276749
 PlusStress:  xx          yy          zz          yz          xz          xy
        -3.28995    -3.15573    -3.23340     0.13020    -0.07472    -0.12098
END_CFG

BEGIN_CFG
 Size
    27
 Supercell
         0.000000      5.415000      5.415000
         5.415000      0.000000      5.415000
         5.415000      5.415000      0.000000
 AtomData:  id type       cartes_x      cartes_y      cartes_z           fx          fy          fz
             1    0       0.015156     -0.053646      0.038904    -0.248940    0.536278   -0.357542
             2    0       1.853156      1.702357     -0.067301    -0.592386    0.644510    0.701145
             3    0       3.617315      3.592714     -0.002080     0.076216   -0.042421   -0.260143
             4    0       1.760212      0.045892      1.846824     0.291618   -0.386660   -0.121213
             5    0       3.614484      1.862941      1.829163     0.182081   -0.651413   -0.223773
             6    0       5.370307      3.629000      1.754700     0.358365   -0.196952    0.372040
             7    0       3.656773     -0.002302      3.600510    -0.169396    0.078449    0.098976
             8    0       5.380028      1.868439      3.602012     0.355724   -0.504825    0.070449
             9    0       7.196775      3.592013      3.637184     0.017932    0.196842   -0.321390
            10    0       0.018503      1.827523      1.826904    -0.260556    0.011390   -0.283662
            11    0       1.917418      3.587904      1.778316    -0.752308    0.031722    0.225119
            12    0       3.568197      5.447984      1.863378     0.464250   -0.107125   -0.553254
            13    0       1.800130      1.761698      3.568404     0.246564    0.440274    0.608354
            14    0       3.644522      3.648850      3.639594    -0.135106   -0.284255    0.012128
            15    0       5.379318      5.426674      3.616139     0.087513   -0.188456   -0.060825
            16    0       3.621568      1.850286      5.426911    -0.055968   -0.361474   -0.035406
            17    0       5.451440      3.613116      5.431682    -0.096715   -0.097744    0.178820
            18    0       7.254236      5.339205      5.397813    -0.007588    0.626290    0.034407
            19    0      -0.023778      3.575746      3.595485     0.301086    0.085898    0.098983
            20    0       1.881306      5.367711      3.660474    -0.894923   -0.118497   -0.419542
            21    0       3.522719      7.203016      3.618381     0.833292    0.251456   -0.100372
            22    0       1.834808      3.645786      5.456800    -0.371963   -0.509156   -0.214998
            23    0       3.593208      5.390589      5.462293     0.433176    0.130055    0.134086
            24    0       5.405616      7.152534      5.355781     0.157411    0.343418    0.438441
            25    0       3.561638      3.636294      7.228609     0.288739   -0.138044    0.191549
            26    0       5.452861      5.392475      7.229000     0.069481    0.115663    0.065247
            27    0       7.250888      7.203629      7.243319    -0.577596    0.094777   -0.277626
 Energy
          0.320213345748
 PlusStress:  xx          yy          zz          yz          xz          xy
        -2.45679    -2.15478    -2.30782     0.27851    -0.16161    -0.24842
END_CFG

BEGIN_CFG
 Size
    27
 Supercell
         0.000000      5.415000      5.415000
         5.415000      0.000000      5.415000
         5.415000      5.415000      0.000000
 AtomData:  id type       cartes_x      cartes_y      cartes_z           fx          fy          fz
             1    0       0.018694     -0.068340      0.049747    -0.307941    0.694483   -0.471664
             2    0       1.865711      1.671948     -0.085636    -0.801165    0.855618    0.954206
             3    0       3.620229      3.586732     -0.004290     0.103288   -0.067188   -0.362219
             4    0       1.747003      0.058941      1.860123     0.375334   -0.529217   -0.199535
             5    0       3.617083      1.878414      1.835884     0.250187   -0.871879   -0.278954
             6    0       5.357564      3.634162      1.740086     0.453291   -0.260208    0.513038
             7    0       3.671364     -0.002590      3.597951    -0.216011    0.102983    0.125057
             8    0       5.370521      1.886476      3.599767     0.444277   -0.622404    0.087908
             9    0       7.189104      3.587219      3.644312     0.033030    0.237568   -0.411178
            10    0       0.023116      1.835131      1.832518    -0.335851    0.000719   -0.362880
            11    0       1.950420      3.580664      1.770746    -0.995829    0.079213    0.298399
            12    0       3.557019      5.458391      1.879512     0.604408   -0.158883   -0.718476
            13    0       1.799970      1.749874      3.558155     0.309706    0.571623    0.788357
            14    0       3.655210      3.660078      3.649561    -0.164314   -0.375804    0.005746
            15    0       5.367960      5.429482      3.617880     0.127866   -0.246189   -0.096356
            16    0       3.625101      1.863206      5.430662    -0.069490   -0.448015   -0.038778
            17    0       5.463039      3.613554      5.438337    -0.140392   -0.120379    0.218560
            18    0       7.265595      5.317684      5.392289    -0.016940    0.809481    0.051444
            19    0      -0.029868      3.564825      3.591199     0.363257    0.119613    0.144016
            20    0       1.901321      5.351346      3.674832    -1.132049   -0.183400   -0.558447
            21    0       3.498523      7.198831      3.620591     1.115800    0.338990   -0.145773
            22    0       1.842490      3.654610      5.469424    -0.473636   -0.636368   -0.258567
            23    0       3.590187      5.383224      5.478897     0.570970    0.168884    0.160560
            24    0       5.403486      7.132074      5.338649     0.182777    0.452706    0.573297
            25    0       3.547277      3.644252      7.232592     0.374912   -0.187772    0.264581
            26    0       5.465908      5.385668      7.232402     0.082239    0.140167    0.076495
            27    0       7.257710      7.198714      7.249412    -0.737726    0.135659   -0.358836
 Energy
          0.626961651264
 PlusStress:  xx          yy          zz          yz          xz          xy
        -1.47529    -0.94386    -1.19626     0.45726    -0.26467    -0.41257
END_CFG

BEGIN_CFG
 Size
    27
 Supercell
         0.000000      5.415000      5.415000
         5.415000      0.000000      5.415000
         5.415000      5.415000      0.000000
 AtomData:  id type       cartes_x      cartes_y      cartes_z           fx          fy          fz
             1    0       0.021061     -0.080402      0.058783    -0.352022    0.831389   -0.573849
             2    0       1.875196      1.644788     -0.100340    -0.982161    1.039757    1.178273
             3    0       3.623566      3.580496     -0.007905     0.124093   -0.093319   -0.453087
             4    0       1.735205      0.069971      1.872658     0.444585   -0.661591   -0.284942
             5    0       3.620672      1.890565      1.841566     0.311527   -1.072059   -0.321359
             6    0       5.346534      3.638332      1.727427     0.529855   -0.316139    0.646280
             7    0       3.685150     -0.002474      3.595872    -0.256445    0.123794    0.145919
             8    0       5.362687      1.902129      3.597848     0.518369   -0.720384    0.106943
             9    0       7.181546      3.583322      3.649869     0.051120    0.264792   -0.484521
            10    0       0.026442      1.842752      1.836762    -0.393522   -0.021078   -0.423191
            11    0       1.979610      3.573735      1.764318    -1.211823    0.139225    0.364186
            12    0       3.548140      5.468207      1.892892     0.718466   -0.213620   -0.857705
            13    0       1.800966      1.740209      3.550900     0.357297    0.687171    0.940243
            14    0       3.665288      3.669849      3.659561    -0.188807   -0.460477   -0.006491
            15    0       5.357114      5.431382      3.619274     0.175727   -0.293836   -0.135045
            16    0       3.628385      1.874453      5.434271    -0.080551   -0.515743   -0.038066
            17    0       5.474094      3.613537      5.445828    -0.184295   -0.135046    0.242883
            18    0       7.276871      5.299242      5.386970    -0.029223    0.966477    0.070637
            19    0      -0.034599      3.554356      3.587446     0.410303    0.155819    0.188225
            20    0       1.917014      5.334301      3.687069    -1.312467   -0.228546   -0.677872
            21    0       3.478587      7.195948      3.622238     1.353108    0.407598   -0.189398
            22    0       1.848358      3.660993      5.481075    -0.556146   -0.735899   -0.290792
            23    0       3.589368      5.376497      5.496134     0.676773    0.204952    0.164513
            24    0       5.402053      7.113326      5.323685     0.200891    0.555625    0.696642
            25    0       3.534374      3.651503      7.237588     0.450231   -0.239581    0.331838
            26    0       5.479264      5.379382      7.236086     0.088227    0.155601    0.084412
            27    0       7.261723      7.194318      7.254126    -0.863110    0.175115   -0.424677
 Energy
          0.943432844001
 PlusStress:  xx          yy          zz          yz          xz          xy
        -0.51459     0.29501    -0.06625     0.63202    -0.37642    -0.57531
END_CFG

BEGIN_CFG
 Size
    27
 Supercell
         0.000000      5.415000      5.415000
         5.415000      0.000000      5.415000
         5.415000      5.415000      0.000000
 AtomData:  id type       cartes_x      cartes_y      cartes_z           fx          fy          fz
             1    0       0.022094     -0.089318      0.065626    -0.380618    0.935576   -0.654299
             2    0       1.880929      1.621563     -0.110578    -1.109007    1.180836    1.341191
             3    0       3.627408      3.573912     -0.013272     0.133417   -0.115677   -0.515807
             4    0       1.725075      0.078482      1.884104     0.495571   -0.768844   -0.364130
             5    0       3.625493      1.898640      1.846058     0.356350   -1.234139   -0.351275
             6    0       5.337500      3.641300      1.717228     0.584394   -0.358212    0.758068
             7    0       3.697982     -0.001877      3.594351    -0.290010    0.139929    0.160759
             8    0       5.356798      1.915027      3.596324     0.576736   -0.799309    0.128940
             9    0       7.174172      3.580421      3.653577     0.071110    0.278881   -0.535735
            10    0       0.028263      1.850307      1.839411    -0.425256   -0.055943   -0.459760
            11    0       2.004176      3.567345      1.759281    -1.379299    0.199056    0.414709
            12    0       3.541985      5.477221      1.902993     0.794921   -0.267350   -0.962276
            13    0       1.803297      1.733141      3.547209     0.387575    0.778661    1.048975
            14    0       3.674658      3.677837      3.669549    -0.213226   -0.535424   -0.024095
            15    0       5.346965      5.432197      3.620177     0.231282   -0.325827   -0.171517
            16    0       3.631384      1.883783      5.437742    -0.089576   -0.563742   -0.033690
            17    0       5.484436      3.613008      5.454248    -0.222776   -0.141322    0.248785
            18    0       7.288016      5.284465      5.381932    -0.044421    1.087759    0.090062
            19    0      -0.037799      3.544473      3.584388     0.445575    0.193548    0.228691
            20    0       1.927716      5.316417      3.696745    -1.420103   -0.232046   -0.763295
            21    0       3.463794      7.194621      3.623160     1.510287    0.441762   -0.220241
            22    0       1.852096      3.664558      5.491630    -0.614179   -0.802102   -0.312942
            23    0       3.591151      5.370543      5.514021     0.732619    0.237718    0.138710
            24    0       5.401389      7.096676      5.311354     0.216498    0.646621    0.803535
            25    0       3.523219      3.657850      7.243854     0.511053   -0.292411    0.385255
            26    0       5.492947      5.373674      7.240078     0.084736    0.162962    0.090012
            27    0       7.262458      7.190592      7.257211    -0.943653    0.209036   -0.468630
 Energy
          1.219473823022
 PlusStress:  xx          yy          zz          yz          xz          xy
         0.27913     1.38121     0.90428     0.77649    -0.47605    -0.71053
END_CFG

BEGIN_CFG
 Size
    27
 Supercell
         0.000000      5.415000      5.415000
         5.415000      0.000000      5.415000
         5.415000      5.415000      0.000000
 AtomData:  id type       cartes_x      cartes_y      cartes_z           fx          fy          fz
             1    0       0.021686     -0.094697      0.069971    -0.395459    0.996796   -0.703201
             2    0       1.882439      1.602790     -0.115751    -1.156415    1.264366    1.412519
             3    0       3.631793      3.566901     -0.020626     0.126844   -0.129986   -0.535878
             4    0       1.716799      0.084071      1.894161     0.526141   -0.836248   -0.423162
             5    0       3.631721      1.902034      1.849256     0.372881   -1.338392   -0.369876
             6    0       5.330663      3.642902      1.709911     0.614772   -0.381213    0.834242
             7    0       3.709735     -0.000738      3.593443    -0.317026    0.150009    0.168955
             8    0       5.353069      1.924874      3.595278     0.617914   -0.859035    0.154581
             9    0       7.167056      3.578566      3.655242     0.091236    0.281568   -0.560847
            10    0       0.028459      1.857664      1.840330    -0.426221   -0.104604   -0.468295
            11    0       2.023500      3.561720      1.755824    -1.478044    0.244578    0.444393
            12    0       3.538832      5.485229      1.909422     0.825268   -0.314515   -1.024389
            13    0       1.807076      1.729011      3.547485     0.398466    0.835964    1.100560
            14    0       3.683226      3.683757      3.679457    -0.240524   -0.596000   -0.046061
            15    0       5.337723      5.431813      3.620454     0.293348   -0.337002   -0.199223
            16    0       3.634065      1.891025      5.441092    -0.096302   -0.593548   -0.026243
            17    0       5.493919      3.611945      5.463620    -0.251804   -0.137687    0.233565
            18    0       7.298971      5.273809      5.377252    -0.061778    1.166964    0.108863
            19    0      -0.039338      3.535317      3.582175     0.471880    0.231043    0.262377
            20    0       1.933041      5.297692      3.703549    -1.445895   -0.178760   -0.802969
            21    0       3.454720      7.194973      3.623247     1.560598    0.429661   -0.227709
            22    0       1.853485      3.665060      5.501003    -0.642839   -0.830055   -0.325962
            23    0       3.595745      5.365486      5.532458     0.726807    0.265287    0.079899
            24    0       5.401551      7.082467      5.302057     0.231664    0.720623    0.888606
            25    0       3.514045      3.663094      7.251591     0.554171   -0.344108    0.417110
            26    0       5.506940      5.368570      7.244397     0.070277    0.162217    0.093764
            27    0       7.259616      7.187664      7.258501    -0.969961    0.232078   -0.485619
 Energy
          1.411318879671
 PlusStress:  xx          yy          zz          yz          xz          xy
         0.77985     2.15777     1.56025     0.87164    -0.53796    -0.78842
END_CFG

BEGIN_CFG
 Size
    27
 Supercell
         0.000000      5.415000      5.415000
         5.415000      0.000000      5.415000
         5.415000      5.415000      0.000000
 AtomData:  id type       cartes_x      cartes_y      cartes_z           fx          fy          fz
             1    0       0.019784     -0.096313      0.071636    -0.397680    1.006586   -0.713392
             2    0       1.879555      1.588773     -0.115601    -1.112147    1.285443    1.378492
             3    0       3.636694      3.559410     -0.030040     0.102083   -0.132259   -0.503921
             4    0       1.710486      0.086484      1.902605     0.536320   -0.853305   -0.451602
             5    0       3.639420      1.900363      1.851095     0.352545   -1.369382   -0.378212
             6    0       5.326132      3.643049      1.705760     0.618594   -0.380441    0.864484
             7    0       3.720304      0.000978      3.593179    -0.338646    0.152398    0.170078
             8    0       5.351649      1.931450      3.594802     0.640584   -0.898991    0.183688
             9    0       7.160276      3.577769      3.654766     0.110947    0.275461   -0.556396
            10    0       0.027026      1.864639      1.839492    -0.396424   -0.165835   -0.445748
            11    0       2.037224      3.557032      1.754060    -1.494474    0.263179    0.450027
            12    0       3.538789      5.492048      1.911949     0.806082   -0.350613   -1.039913
            13    0       1.812344      1.728031      3.551918     0.389662    0.851556    1.086216
            14    0       3.690887      3.687382      3.689203    -0.272384   -0.637791   -0.071037
            15    0       5.329622      5.430192      3.620002     0.358983   -0.323798   -0.211561
            16    0       3.636404      1.896073      5.444350    -0.101154   -0.605759   -0.016421
            17    0       5.502434      3.610364      5.473884    -0.269113   -0.122847    0.195751
            18    0       7.309674      5.267571      5.373005    -0.080896    1.198896    0.125235
            19    0      -0.039121      3.527032      3.580933     0.490835    0.265834    0.286146
            20    0       1.932903      5.278333      3.707339    -1.390723   -0.067471   -0.791460
            21    0       3.451541      7.196956      3.622472     1.496649    0.367471   -0.208666
            22    0       1.852417      3.662398      5.509143    -0.639362   -0.817392   -0.330573
            23    0       3.603121      5.361429      5.551223     0.658029    0.283826   -0.009441
            24    0       5.402599      7.070974      5.296113     0.247015    0.771772    0.945419
            25    0       3.507013      3.667040      7.260921     0.577990   -0.391519    0.420817
            26    0       5.521189      5.364066      7.249057     0.043462    0.153358    0.095376
            27    0       7.253104      7.185619      7.257932    -0.936775    0.241627   -0.473386
 Energy
          1.493324068492
 PlusStress:  xx          yy          zz          yz          xz          xy
         0.92073     2.52307     1.80874     0.90241    -0.55195    -0.77903
END_CFG

BEGIN_CFG
 Size
    27
 Supercell
         0.000000      5.415000      5.415000
         5.415000      0.000000      5.415000
         5.415000      5.415000      0.000000
 AtomData:  id type       cartes_x      cartes_y      cartes_z           fx          fy          fz
             1    0       0.016382     -0.094128      0.070585    -0.388107    0.961722   -0.682528
             2    0       1.872443      1.579589     -0.110255    -0.982092    1.250680    1.248383
             3    0       3.642018      3.551435     -0.041391     0.059679   -0.119167   -0.418236
             4    0       1.706169      0.085658      1.909327     0.528296   -0.817191   -0.446067
             5    0       3.648512      1.893515      1.851547     0.293945   -1.320836   -0.376195
             6    0       5.323917      3.641744      1.704890     0.594740   -0.354910    0.844886
             7    0       3.729605      0.003279      3.593563    -0.355853    0.146155    0.163919
             8    0       5.352622      1.934606      3.595006     0.643798   -0.918406    0.215083
             9    0       7.153905      3.578008      3.652167     0.129521    0.262489   -0.520822
            10    0       0.024074      1.871000      1.836984    -0.339395   -0.236270   -0.392377
            11    0       2.045299      3.553350      1.754011    -1.426543    0.248269    0.431603
            12    0       3.541779      5.497537      1.910513     0.740069   -0.373836   -1.009390