BEGIN_CFG
 Size
     3
 AtomData:  id type       cartes_x      cartes_y      cartes_z           fx          fy          fz
             1    0      -0.000001     -0.409818      0.000000    -0.000249    0.000252    0.000000
             2    0      -1.072560      0.204912     -0.000000     0.000250   -0.000197   -0.000000
             3    0       1.072561      0.204906     -0.000000    -0.000001   -0.000055    0.000000
 Energy
       -324.576228468337
END_CFG

BEGIN_CFG
 Size
     3
 AtomData:  id type       cartes_x      cartes_y      cartes_z           fx          fy          fz
             1    0       0.296441      0.473681      0.080715    -2.476030   -3.271300   -1.510916
             2    0      -0.125147      0.843848     -0.992927    -1.715228   -0.264873   -2.808997
             3    0       0.976676      1.225736      0.625006     4.191258    3.536173    4.319912
 Energy
       -324.207320228763
END_CFG

BEGIN_CFG
 Size
     3
 AtomData:  id type       cartes_x      cartes_y      cartes_z           fx          fy          fz
             1    0       0.313562      0.936607     -0.364877    -1.464410   -2.592210    1.037109
             2    0      -0.530454     -0.012698     -0.368616    -0.182783    1.160166   -1.508922
             3    0       1.035178      0.864170      0.614551     1.647193    1.432044    0.471813
 Energy
       -324.369655547010
END_CFG

BEGIN_CFG
 Size
     3
 AtomData:  id type       cartes_x      cartes_y      cartes_z           fx          fy          fz
             1    0       0.426403      0.658976     -0.680193    -0.112746    1.012126    2.126176
             2    0      -0.694937      0.276329     -1.055208     0.952079    0.515962    0.711959
             3    0       0.612583      1.253184      0.475081    -0.839333   -1.528087   -2.838135
 Energy
       -324.426871114658
END_CFG

BEGIN_CFG
 Size
     3
 AtomData:  id type       cartes_x      cartes_y      cartes_z           fx          fy          fz
             1    0       0.036670      1.103366     -0.938708     1.488640    0.400694    1.733002
             2    0      -1.037636      0.823263     -1.399960    -1.481482   -0.387733   -0.762640
             3    0       0.186018      1.155976      0.316142    -0.007158   -0.012961   -0.970362
 Energy
       -324.533267053943
END_CFG

BEGIN_CFG
 Size
     3
 AtomData:  id type       cartes_x      cartes_y      cartes_z           fx          fy          fz
             1    0       0.027396      2.034492     -1.023639     4.172921   -1.422785    4.858765
             2    0      -0.762376      2.232268     -1.844995    -3.676983    0.199862   -2.833639
             3    0      -0.109861      1.224885     -0.006972    -0.495938    1.222923   -2.025126
 Energy
       -324.274114781543
END_CFG

BEGIN_CFG
 Size
     3
 AtomData:  id type       cartes_x      cartes_y      cartes_z           fx          fy          fz
             1    0      -0.550876      2.690525     -0.762151     4.400318   -1.023322    0.095325
             2    0       0.135994      2.912316     -1.791029    -2.025590    0.622634   -0.458549
             3    0       0.216670      2.191761      0.130689    -2.374728    0.400688    0.363224
 Energy
       -324.271324096396
END_CFG

BEGIN_CFG
 Size
     3
 AtomData:  id type       cartes_x      cartes_y      cartes_z           fx          fy          fz
             1    0      -0.569946      3.146818     -0.440408     1.087116    3.243373   -2.640917
             2    0       0.026926      3.737192     -1.447633    -1.276772   -0.792540    1.979506
             3    0      -0.365984      1.991557     -0.279748     0.189656   -2.450833    0.661411
 Energy
       -324.402896973359
END_CFG

BEGIN_CFG
 Size
     3
 AtomData:  id type       cartes_x      cartes_y      cartes_z           fx          fy          fz
             1    0      -0.225386      2.980188     -0.570369     0.602455    1.446934   -0.937029
             2    0       0.603251      3.446725     -1.384763    -0.383822    0.273565    0.224745
             3    0      -0.137588      1.815217     -0.278514    -0.218633   -1.720499    0.712284
 Energy
       -324.534905436408
END_CFG

BEGIN_CFG
 Size
     3
 AtomData:  id type       cartes_x      cartes_y      cartes_z           fx          fy          fz
             1    0      -0.758600      3.487048     -0.542667    -3.042007    0.108345    2.059702
             2    0       0.118978      4.128993     -1.048519     1.982875   -0.044406   -1.339138
             3    0      -0.956002      2.260383     -0.570906     1.059132   -0.063939   -0.720564
 Energy
       -324.412458262909
END_CFG

BEGIN_CFG
 Size
     3
 AtomData:  id type       cartes_x      cartes_y      cartes_z           fx          fy          fz
             1    0      -0.648745      2.936533     -0.273820    -1.039172    4.082598   -4.634138
             2    0      -1.210334      3.352671     -1.393970     1.678649    0.946307    1.654529
             3    0      -1.027257      1.883381      0.002480    -0.639476   -5.028904    2.979609
 Energy
       -324.090720118398
END_CFG

BEGIN_CFG
 Size
     3
 AtomData:  id type       cartes_x      cartes_y      cartes_z           fx          fy          fz
             1    0      -1.031929      2.462962     -0.571308     1.433627   -0.833608   -1.604743
             2    0      -0.813191      3.658781     -0.614248     0.104601    1.501941    0.121341
             3    0      -1.834888      1.981834      0.182892    -1.538228   -0.668333    1.483402
 Energy
       -324.520177155000
END_CFG

BEGIN_CFG
 Size
     3
 AtomData:  id type       cartes_x      cartes_y      cartes_z           fx          fy          fz
             1    0      -0.466552      2.683762      0.736332     1.553011    1.231496   -0.569304
             2    0      -0.206753      3.528922     -0.169900    -0.500906   -0.849069    0.756963
             3    0      -1.527975      2.105268      0.791567    -1.052105   -0.382427   -0.187659
 Energy
       -324.538214164391
END_CFG

BEGIN_CFG
 Size
     3
 AtomData:  id type       cartes_x      cartes_y      cartes_z           fx          fy          fz
             1    0      -0.626678      2.496187      1.113308    -0.488790    4.155450   -0.563013
             2    0      -0.112222      3.303811      0.220239    -1.001071   -2.484120    1.999492
             3    0      -1.409150      3.058872      1.958120     1.489860   -1.671330   -1.436479
 Energy
       -324.344043668826
END_CFG

BEGIN_CFG
 Size
     3
 AtomData:  id type       cartes_x      cartes_y      cartes_z           fx          fy          fz
             1    0      -1.530954      2.821997      0.556998    -0.232129    1.990463    2.909081
             2    0      -1.661328      3.862942     -0.111575     0.143133   -1.162733    0.143238
             3    0      -1.543795      2.970257      1.862755     0.088996   -0.827730   -3.052319
 Energy
       -324.414152660055
END_CFG

BEGIN_CFG
 Size
     3
 AtomData:  id type       cartes_x      cartes_y      cartes_z           fx          fy          fz
             1    0      -1.272849      2.837690      0.128301     0.070436    0.933240   -2.692611
             2    0      -1.814463      3.912207     -0.172499    -0.132512    0.405882   -0.437520
             3    0      -1.313543      2.468238      1.251743     0.062076   -1.339122    3.130131
 Energy
       -324.488292823286
END_CFG

BEGIN_CFG
 Size
     3
 AtomData:  id type       cartes_x      cartes_y      cartes_z           fx          fy          fz
             1    0      -0.793206      2.411508      0.578418     1.977685   -4.174501    4.532097
             2    0      -1.208001      3.093758     -0.239380    -2.211318    3.971544   -4.589391
             3    0      -1.370216      1.316653      0.844914     0.233633    0.202958    0.057294
 Energy
       -324.300727918980
END_CFG

BEGIN_CFG
 Size
     3
 AtomData:  id type       cartes_x      cartes_y      cartes_z           fx          fy          fz
             1    0      -0.619516      2.597085      1.280989     0.238933    0.042275    0.609776
             2    0      -0.444276      3.767255      0.943246     0.056922    0.421957   -0.138689
             3    0      -1.117331      1.791028      0.505586    -0.295856   -0.464232   -0.471087
 Energy
       -324.570609702362
END_CFG

BEGIN_CFG
 Size
     3
 AtomData:  id type       cartes_x      cartes_y      cartes_z           fx          fy          fz
             1    0      -0.308262      4.062445      0.956809    -0.377580    1.593633    0.806486
             2    0      -0.946340      5.070332      1.320431     0.705814    0.471546    0.538766
             3    0      -0.921450      3.288430      0.272696    -0.328234   -2.065180   -1.345252
 Energy
       -324.485856453895
END_CFG

BEGIN_CFG
 Size
     3
 AtomData:  id type       cartes_x      cartes_y      cartes_z           fx          fy          fz
             1    0      -0.445297      3.784581      0.903909    -4.276719    2.604031    2.617339
             2    0      -1.050338      4.720568      1.714042     2.869615   -2.496464   -2.336759
             3    0      -1.276238      3.012784      0.422164     1.407104   -0.107567   -0.280580
 Energy
       -324.092158459651
END_CFG

BEGIN_CFG
 Size
     3
 AtomData:  id type       cartes_x      cartes_y      cartes_z           fx          fy          fz
             1    0      -1.710566      4.123183      0.675482     1.785044   -1.407591    0.740412
             2    0      -0.917973      5.058984      0.771191    -0.513549    0.879942   -0.283932
             3    0      -1.225363      2.995349      0.988035    -1.271495    0.527649   -0.456480
 Energy
       -324.493445739910
END_CFG

