BEGIN_CFG
 Size
    27
 Supercell
         0.000000      5.415000      5.415000
         5.415000      0.000000      5.415000
         5.415000      5.415000      0.000000
 AtomData:  id type       cartes_x      cartes_y      cartes_z           fx          fy          fz
             1    0       0.000000      0.000000      0.000000    -1.205762   -0.008050   -1.205762
             2    1       1.805000      1.805000      0.000000     0.584325   -0.728240    0.100709
             3    2       3.610000      3.610000      0.000000     0.332686    0.342900    0.075718
             4    2       1.805000      0.000000      1.805000     0.230593    0.037128    0.230593
             5    0       3.610000      1.805000      1.805000     0.248921   -0.582870   -0.867149
             6    1       5.415000      3.610000      1.805000    -0.034989    0.020602   -0.056632
             7    2       3.610000      0.000000      3.610000     0.365834    0.042444    0.365834
             8    2       5.415000      1.805000      3.610000    -0.009693   -0.676215   -0.036461
             9    0       7.220000      3.610000      3.610000    -0.256882    0.853203   -0.627670
            10    1       0.000000      1.805000      1.805000     0.100709   -0.728240    0.584325
            11    2       1.805000      3.610000      1.805000     0.326864    0.674675    0.326864
            12    2       3.610000      5.415000      1.805000    -0.632672   -0.045589   -0.008535
            13    0       1.805000      1.805000      3.610000    -0.867149   -0.582870    0.248921
            14    1       3.610000      3.610000      3.610000    -0.043855    1.305342   -0.043855
            15    2       5.415000      5.415000      3.610000    -0.360487    0.333065   -0.061217
            16    2       3.610000      1.805000      5.415000    -0.036461   -0.676215   -0.009693
            17    0       5.415000      3.610000      5.415000    -0.624800    0.004228   -0.624800
            18    1       7.220000      5.415000      5.415000     1.260067    0.710654    0.772503
            19    2       0.000000      3.610000      3.610000     0.075718    0.342900    0.332686
            20    2       1.805000      5.415000      3.610000    -0.008535   -0.045589   -0.632672
            21    0       3.610000      7.220000      3.610000     0.885683   -1.811400    0.885683
            22    1       1.805000      3.610000      5.415000    -0.056632    0.020602   -0.034989
            23    2       3.610000      5.415000      5.415000    -0.061217    0.333065   -0.360487
            24    2       5.415000      7.220000      5.415000    -0.264218    0.010131   -0.264218
            25    0       3.610000      3.610000      7.220000    -0.627670    0.853203   -0.256882
            26    1       5.415000      5.415000      7.220000     0.772503    0.710654    1.260067
            27    2       7.220000      7.220000      7.220000    -0.092882   -0.709515   -0.092882
 Energy
          7.366207411676
 PlusStress:  xx          yy          zz          yz          xz          xy
        81.59326    77.29275    81.59326    -0.44100    -4.78574    -0.44100
END_CFG

BEGIN_CFG
 Size
    27
 Supercell
         0.000000      5.415000      5.415000
         5.415000      0.000000      5.415000
         5.415000      5.415000      0.000000
 AtomData:  id type       cartes_x      cartes_y      cartes_z           fx          fy          fz
             1    0       0.002399     -0.010685      0.006978    -1.364533    0.321075   -1.354133
             2    1       1.818698      1.777096     -0.017959     0.133426   -0.387068    0.493494
             3    2       3.612946      3.604940     -0.000163     0.334129    0.324261   -0.020695
             4    2       1.789998      0.015981      1.819493     0.364375   -0.186438    0.188177
             5    0       3.610830      1.816221      1.809274     0.363846   -0.888787   -0.967481
             6    1       5.403032      3.615147      1.791623     0.196828   -0.101062    0.143952
             7    2       3.626591     -0.000818      3.607360     0.239528    0.075163    0.408884
             8    2       5.402661      1.825818      3.607142     0.158666   -0.955608    0.027443
             9    0       7.215437      3.606907      3.615087    -0.316276    0.932513   -0.866754
            10    1       0.005191      1.809909      1.811622    -0.023211   -0.651910    0.332223
            11    2       1.844346      3.603925      1.796348    -0.050854    0.673176    0.333229
            12    2       3.594087      5.426060      1.825400    -0.410121   -0.090132   -0.269930
            13    0       1.803301      1.796010      3.601682    -0.646206   -0.310189    0.661833
            14    1       3.618987      3.621778      3.617496    -0.176417    1.067614   -0.026804
            15    2       5.402279      5.419833      3.611994    -0.259108    0.244488   -0.054302
            16    2       3.613892      1.819467      5.419020    -0.085810   -0.871739   -0.047262
            17    0       5.421595      3.610691      5.417591    -0.590702   -0.128470   -0.402064
            18    1       7.230169      5.395573      5.411422     1.294273    1.092261    0.782027
            19    2      -0.008366      3.599105      3.605658     0.241236    0.408477    0.421617
            20    2       1.832019      5.399260      3.626317    -0.424985   -0.040502   -0.825480
            21    0       3.593255      7.215448      3.612215     1.272247   -1.685333    0.708090
            22    1       1.813072      3.619901      5.425973    -0.279858   -0.350605   -0.240034
            23    2       3.603577      5.407272      5.429832     0.125217    0.405639   -0.326256
            24    2       5.411040      7.196936      5.394003    -0.159419    0.173008   -0.025507
            25    0       3.600173      3.615632      7.221300    -0.415214    0.806174   -0.138025
            26    1       5.425445      5.409869      7.223607     0.822206    0.777123    1.305020
            27    2       7.231133      7.213051      7.228079    -0.343259   -0.653127   -0.241261
 Energy
          7.426182043752
 PlusStress:  xx          yy          zz          yz          xz          xy
        81.74184    77.39357    81.83234    -0.54782    -4.68597    -0.41378
END_CFG

BEGIN_CFG
 Size
    27
 Supercell
         0.000000      5.415000      5.415000
         5.415000      0.000000      5.415000
         5.415000      5.415000      0.000000
 AtomData:  id type       cartes_x      cartes_y      cartes_z           fx          fy          fz
             1    0       0.003141     -0.020974      0.012311    -1.465218    0.641702   -1.465944
             2    1       1.832667      1.748311     -0.034807    -0.345418   -0.008663    0.889788
             3    2       3.617167      3.601132     -0.000407     0.315062    0.272093   -0.142679
             4    2       1.776358      0.031257      1.834681     0.482888   -0.422904    0.108076
             5    0       3.612106      1.826347      1.812368     0.466089   -1.180263   -1.022238
             6    1       5.391508      3.620078      1.778566     0.408795   -0.215084    0.364446
             7    2       3.644103     -0.001343      3.606298     0.097130    0.106816    0.425924
             8    2       5.390914      1.842989      3.604395     0.309266   -1.151155    0.091195
             9    0       7.210470      3.604968      3.619115    -0.350753    0.960168   -1.055470
            10    1       0.010340      1.813349      1.818960    -0.170354   -0.543830    0.059812
            11    2       1.883476      3.600399      1.788942    -0.443815    0.646441    0.333786
            12    2       3.576621      5.436784      1.844772    -0.148982   -0.141913   -0.525951
            13    0       1.800816      1.786635      3.594177    -0.397853   -0.028132    1.045483
            14    1       3.627590      3.635947      3.624943    -0.281517    0.762622   -0.021563
            15    2       5.388571      5.425584      3.613781    -0.128111    0.133642   -0.048047
            16    2       3.617469      1.830599      5.422847    -0.122502   -1.000874   -0.081019
            17    0       5.427477      3.611215      5.419698    -0.542798   -0.229392   -0.162560
            18    1       7.243226      5.378605      5.409580     1.251302    1.408370    0.763592
            19    2      -0.015810      3.589777      3.602921     0.371487    0.447766    0.488334
            20    2       1.857422      5.383374      3.639515    -0.823680   -0.046144   -0.980722
            21    0       3.578073      7.208821      3.615303     1.641891   -1.469404    0.489902
            22    1       1.820510      3.629030      5.436407    -0.489012   -0.686802   -0.418927
            23    2       3.597629      5.401091      5.443423     0.335388    0.448196   -0.265318
            24    2       5.406481      7.174507      5.372914    -0.062255    0.321778    0.221827
            25    0       3.589841      3.622259      7.222416    -0.172095    0.726658    0.004867
            26    1       5.437722      5.406491      7.230129     0.828264    0.786421    1.269726
            27    2       7.240950      7.203612      7.235231    -0.563198   -0.538111   -0.366321
 Energy
          7.575381170600
 PlusStress:  xx          yy          zz          yz          xz          xy
        81.95914    77.49923    82.13820    -0.58330    -4.55866    -0.47809
END_CFG

BEGIN_CFG
 Size
    27
 Supercell
         0.000000      5.415000      5.415000
         5.415000      0.000000      5.415000
         5.415000      5.415000      0.000000
 AtomData:  id type       cartes_x      cartes_y      cartes_z           fx          fy          fz
             1    0       0.002104     -0.030474      0.015859    -1.504807    0.937862   -1.535165
             2    1       1.845833      1.719491     -0.049660    -0.821836    0.384548    1.265439
             3    2       3.622587      3.598377     -0.001193     0.274565    0.190242   -0.278809
             4    2       1.764528      0.044921      1.850258     0.580865   -0.658637   -0.007093
             5    0       3.613953      1.835021      1.814213     0.547315   -1.445231   -1.031592
             6    1       5.380906      3.624537      1.766328     0.591732   -0.315615    0.594480
             7    2       3.661987     -0.001459      3.606881    -0.057567    0.133805    0.414655
             8    2       5.380332      1.855778      3.601993     0.434297   -1.259768    0.152778
             9    0       7.205053      3.604223      3.621852    -0.359100    0.936866   -1.181860
            10    1       0.015120      1.815566      1.826404    -0.331203   -0.416403   -0.207514
            11    2       1.920887      3.599324      1.782781    -0.827298    0.596474    0.334402
            12    2       3.558589      5.446968      1.862140     0.141144   -0.200722   -0.766009
            13    0       1.797848      1.777221      3.587957    -0.137006    0.252163    1.382470
            14    1       3.635578      3.651831      3.632356    -0.347306    0.400306   -0.027973
            15    2       5.374375      5.431816      3.615383     0.027910    0.008699   -0.048156
            16    2       3.620590      1.837904      5.426354    -0.146182   -1.060452   -0.107978
            17    0       5.432710      3.611445      5.421616    -0.483729   -0.287279    0.076808
            18    1       7.259071      5.364806      5.409429     1.133137    1.642385    0.715233
            19    2      -0.021833      3.582159      3.602043     0.464659    0.458469    0.526122
            20    2       1.879692      5.367314      3.649011    -1.192332   -0.050003   -1.086080
            21    0       3.564911      7.200382      3.619003     1.968110   -1.179253    0.245502
            22    1       1.826848      3.636638      5.445901    -0.673457   -0.970562   -0.570094
            23    2       3.592950      5.396623      5.456005     0.550212    0.456850   -0.191049
            24    2       5.401696      7.153276      5.352668     0.027597    0.455713    0.470881
            25    0       3.579301      3.629785      7.223519     0.089387    0.619382    0.160040
            26    1       5.451848      5.404887      7.239487     0.788850    0.737500    1.162119
            27    2       7.248620      7.192124      7.240980    -0.737955   -0.367339   -0.461554
 Energy
          7.789501998647
 PlusStress:  xx          yy          zz          yz          xz          xy
        82.30083    77.66722    82.56441    -0.55982    -4.40901    -0.60255
END_CFG

BEGIN_CFG
 Size
    27
 Supercell
         0.000000      5.415000      5.415000
         5.415000      0.000000      5.415000
         5.415000      5.415000      0.000000
 AtomData:  id type       cartes_x      cartes_y      cartes_z           fx          fy          fz
             1    0      -0.000758     -0.038823      0.017535    -1.484761    1.193055   -1.554801
             2    1       1.857131      1.691515     -0.061685    -1.259892    0.766015    1.589069
             3    2       3.629052      3.596362     -0.003039     0.212571    0.084735   -0.413010
             4    2       1.754877      0.056071      1.865780     0.652862   -0.874630   -0.148288
             5    0       3.616473      1.841918      1.814796     0.599150   -1.669380   -0.998887
             6    1       5.371641      3.628294      1.755433     0.738723   -0.397553    0.818795
             7    2       3.679654     -0.001068      3.609068    -0.220346    0.152652    0.372836
             8    2       5.371398      1.863774      3.600163     0.531243   -1.285131    0.211190
             9    0       7.199172      3.604647      3.623140    -0.342759    0.868476   -1.237724
            10    1       0.019165      1.816848      1.833353    -0.489457   -0.284267   -0.445978
            11    2       1.955109      3.600517      1.777860    -1.173845    0.521604    0.335706
            12    2       3.541090      5.456377      1.876588     0.446553   -0.263498   -0.975829
            13    0       1.794716      1.768110      3.583438     0.120012    0.518334    1.654846
            14    1       3.642803      3.668624      3.639720    -0.370767   -0.002214   -0.044339
            15    2       5.360285      5.438034      3.616799     0.203438   -0.120432   -0.058118
            16    2       3.623168      1.841164      5.429440    -0.156455   -1.050252   -0.125738
            17    0       5.437369      3.611311      5.423637    -0.414443   -0.299434    0.299737
            18    1       7.277435      5.354697      5.410860     0.946196    1.781802    0.634517
            19    2      -0.026079      3.576290      3.603169     0.521366    0.440099    0.530743
            20    2       1.897422      5.351067      3.654412    -1.514849   -0.033970   -1.127825
            21    0       3.554167      7.190489      3.623022     2.217351   -0.839918   -0.003979
            22    1       1.831674      3.642097      5.454123    -0.820140   -1.186857   -0.692854
            23    2       3.590346      5.393906      5.467862     0.744350    0.430983   -0.119352
            24    2       5.397026      7.133751      5.334207     0.110142    0.573542    0.712022
            25    0       3.568876      3.638078      7.224797     0.355732    0.489886    0.313672
            26    1       5.467736      5.404952      7.251447     0.701526    0.633453    0.993597
            27    2       7.253482      7.179245      7.244972    -0.853500   -0.147100   -0.520009
 Energy
          8.031633934230
 PlusStress:  xx          yy          zz          yz          xz          xy
        82.76374    77.90219    83.09075    -0.50212    -4.24006    -0.75601
END_CFG

BEGIN_CFG
 Size
    27
 Supercell
         0.000000      5.415000      5.415000
         5.415000      0.000000      5.415000
         5.415000      5.415000      0.000000
 AtomData:  id type       cartes_x      cartes_y      cartes_z           fx          fy          fz
             1    0      -0.005418     -0.045708      0.017307    -1.410148    1.391347   -1.519208
             2    1       1.865586      1.665239     -0.070170    -1.625029    1.117160    1.826995
             3    2       3.636325      3.594680     -0.006451     0.130299   -0.036390   -0.526607
             4    2       1.747670      0.063877      1.880694     0.693727   -1.047215   -0.301283
             5    0       3.619732      1.846760      1.814156     0.614309   -1.837685   -0.929553
             6    1       5.364043      3.631159      1.746391     0.843381   -0.454525    1.019440
             7    2       3.696487     -0.000104      3.612697    -0.385784    0.160263    0.298588
             8    2       5.364494      1.866879      3.599123     0.598919   -1.234031    0.265919
             9    0       7.192844      3.606153      3.622911    -0.304468    0.763627   -1.219275
            10    1       0.022119      1.817492      1.839274    -0.625173   -0.162456   -0.634705
            11    2       1.984806      3.603700      1.774183    -1.455908    0.416207    0.331495
            12    2       3.525288      5.464766      1.887316     0.748692   -0.325067   -1.136611
            13    0       1.791734      1.759631      3.580953     0.355333    0.754735    1.842734
            14    1       3.649214      3.685434      3.646998    -0.358990   -0.418324   -0.068740
            15    2       5.346969      5.443733      3.617992     0.391602   -0.242425   -0.078077
            16    2       3.625168      1.840429      5.432042    -0.152506   -0.972417   -0.132935
            17    0       5.441542      3.610793      5.426036    -0.328930   -0.277229    0.492627
            18    1       7.297895      5.348586      5.413695     0.700584    1.818945    0.520890
            19    2      -0.028335      3.572096      3.606319     0.543308    0.394995    0.501474
            20    2       1.909378      5.334696      3.655568    -1.766211    0.015886   -1.095440
            21    0       3.546146      7.179557      3.627058     2.354318   -0.484039   -0.232153
            22    1       1.834662      3.644933      5.460801    -0.916593   -1.323036   -0.785175
            23    2       3.590539      5.392852      5.479268     0.890529    0.374845   -0.066255
            24    2       5.392792      7.116382      5.318447     0.184766    0.672231    0.931396
            25    0       3.558896      3.646974      7.226436     0.613951    0.343733    0.451931
            26    1       5.485197      5.406457      7.265638     0.563167    0.480189    0.777928
            27    2       7.255094      7.165820      7.246992    -0.897145    0.110676   -0.535401
 Energy
          8.257711149755
 PlusStress:  xx          yy          zz          yz          xz          xy
        83.25555    78.12885    83.59893    -0.43920    -4.03919    -0.90972
END_CFG

BEGIN_CFG
 Size
    27
 Supercell
         0.000000      5.415000      5.415000
         5.415000      0.000000      5.415000
         5.415000      5.415000      0.000000
 AtomData:  id type       cartes_x      cartes_y      cartes_z           fx          fy          fz
             1    0      -0.011779     -0.050883      0.015212    -1.288316    1.517511   -1.425217
             2    1       1.870408      1.641432     -0.074601    -1.862497    1.400149    1.944881
             3    2       3.644094      3.592863     -0.011862     0.031266   -0.162987   -0.600784
             4    2       1.743053      0.067675      1.894400     0.699323   -1.151836   -0.449188
             5    0       3.623749      1.849342      1.812376     0.589137   -1.937025   -0.830335
             6    1       5.358349      3.632990      1.739656     0.901373   -0.483628    1.175079
             7    2       3.711865      0.001462      3.617482    -0.548080    0.154194    0.191129
             8    2       5.359887      1.865286      3.599078     0.637908   -1.116194    0.315613
             9    0       7.186114      3.608609      3.621186    -0.247650    0.631800   -1.127343
            10    1       0.023674      1.817775      1.843746    -0.719247   -0.063788   -0.756492
            11    2       2.008881      3.608486      1.771750    -1.654609    0.280252    0.321533
            12    2       3.512334      5.471892      1.893718     1.024102   -0.379599   -1.226501
            13    0       1.789191      1.752080      3.580738     0.553359    0.948253    1.929015
            14    1       3.654830      3.701334      3.654131    -0.330558   -0.815476   -0.098716
            15    2       5.335141      5.448432      3.618887     0.585441   -0.344612   -0.102139
            16    2       3.626609      1.836009      5.434139    -0.133929   -0.830709   -0.129135
            17    0       5.445328      3.609928      5.429047    -0.241272   -0.217877    0.645257
            18    1       7.319896      5.346556      5.417685     0.406412    1.752363    0.375711
            19    2      -0.028508      3.569406      3.611381     0.535813    0.326499    0.437480
            20    2       1.914608      5.318392      3.652606    -1.914396    0.105770   -0.985197
            21    0       3.541012      7.168025      3.630835     2.352175   -0.147445   -0.412420
            22    1       1.835588      3.644840      5.465726    -0.956029   -1.375942   -0.844501
            23    2       3.594070      5.393253      5.490426     0.965941    0.297555   -0.044477
            24    2       5.389299      7.101562      5.306239     0.258386    0.750563    1.119858
            25    0       3.549681      3.656287      7.228605     0.853009    0.185628    0.562164
            26    1       5.503926      5.409062      7.281585     0.369463    0.286075    0.526056
            27    2       7.253271      7.152840      7.246977    -0.866525    0.390503   -0.511330
 Energy
          8.425728139615
 PlusStress:  xx          yy          zz          yz          xz          xy
        83.63009    78.18985    83.96858    -0.40221    -3.76703    -0.95418
END_CFG

BEGIN_CFG
 Size
    27
 Supercell
         0.000000      5.415000      5.415000
         5.415000      0.000000      5.415000
         5.415000      5.415000      0.000000
 AtomData:  id type       cartes_x      cartes_y      cartes_z           fx          fy          fz
             1    0      -0.019692     -0.054192      0.011363    -1.130851    1.559215   -1.270201
             2    1       1.871081      1.620725     -0.074728    -1.938209    1.599170    1.924057
             3    2       3.651987      3.590418     -0.019551    -0.079393   -0.285089   -0.621306
             4    2       1.741035      0.067062      1.906318     0.667645   -1.167117   -0.575810
             5    0       3.628494      1.849542      1.809580     0.523796   -1.958867   -0.706699
             6    1       5.354690      3.633709      1.735577     0.910195   -0.486007    1.265467
             7    2       3.725177      0.003609      3.623011    -0.702548    0.132876    0.052269
             8    2       5.357733      1.859442      3.600214     0.650182   -0.943475    0.357834
             9    0       7.179050      3.611844      3.618078    -0.174952    0.482317   -0.966461
            10    1       0.023618      1.817918      1.846499    -0.757968    0.001539   -0.799764
            11    2       2.026560      3.614367      1.770546    -1.756836    0.117006    0.303425
            12    2       3.503281      5.477544      1.895463     1.249791   -0.421723   -1.227033
            13    0       1.787330      1.745705      3.582903     0.702044    1.090829    1.903381
            14    1       3.659704      3.715439      3.661046    -0.309371   -1.158820   -0.132366
            15    2       5.325531      5.451735      3.619384     0.772741   -0.415256   -0.123903
            16    2       3.627561      1.828459      5.435744    -0.100782   -0.630415   -0.116000
            17    0       5.448829      3.608789      5.432855    -0.154975   -0.131538    0.750955
            18    1       7.342775      5.348459      5.422514     0.077299    1.586887    0.207613
            19    2      -0.026614      3.567951      3.618111     0.503353    0.238311    0.341549
            20    2       1.912562      5.302489      3.645947    -1.925199    0.231128   -0.801075
            21    0       3.538762      7.156304      3.634131     2.202177    0.137463   -0.524675
            22    1       1.834358      3.641693      5.468755    -0.935024   -1.350392   -0.871093
            23    2       3.601210      5.394818      5.501420     0.957443    0.211336   -0.060697
            24    2       5.386841      7.089612      5.298315     0.330186    0.805587    1.264072
            25    0       3.541528      3.665815      7.231441     1.064310    0.019101    0.633905
            26    1       5.523496      5.412332      7.298731     0.115678    0.062380    0.244063
            27    2       7.248115      7.141384      7.245016    -0.760734    0.673552   -0.451506
 Energy
          8.506942710094
 PlusStress:  xx          yy          zz          yz          xz          xy
        83.63607    77.85640    83.96421    -0.40174    -3.41809    -0.83842
END_CFG

BEGIN_CFG
 Size
    27
 Supercell
         0.000000      5.415000      5.415000
         5.415000      0.000000      5.415000
         5.415000      5.415000      0.000000
 AtomData:  id type       cartes_x      cartes_y      cartes_z           fx          fy          fz
             1    0      -0.028960     -0.055580      0.005950    -0.948160    1.509192   -1.058317
             2    1       1.867434      1.603577     -0.070598    -1.838737    1.714759    1.769746
             3    2       3.659586      3.586871     -0.029592    -0.196473   -0.392920   -0.580720
             4    2       1.741485      0.061977      1.915956     0.599711   -1.081152   -0.670466
             5    0       3.633886      1.847338      1.805924     0.423536   -1.902075   -0.563098
             6    1       5.353085      3.633304      1.734352     0.867528   -0.462171    1.277541
             7    2       3.735844      0.006269      3.628753    -0.841728    0.098541   -0.112387
             8    2       5.358081      1.850005      3.602692     0.637993   -0.729370    0.388955
             9    0       7.171739      3.615665      3.613786    -0.090315    0.319829   -0.744860
            10    1       0.021870      1.818071      1.847443    -0.735474    0.029446   -0.760727
            11    2       2.037448      3.620719      1.770515    -1.759249   -0.065740    0.274554
            12    2       3.498988      5.481558      1.892564     1.402275   -0.450053   -1.126463
            13    0       1.786334      1.740688      3.587419     0.793724    1.174660    1.761287
            14    1       3.663875      3.726982      3.667661    -0.315550   -1.416373   -0.168998
            15    2       5.318842      5.453368      3.619392     0.938494   -0.446129   -0.135080
            16    2       3.628152      1.818553      5.436905    -0.053342   -0.378787   -0.096285
            17    0       5.452150      3.607484      5.437588    -0.073381   -0.029096    0.806417
            18    1       7.365793      5.353926      5.427813    -0.273539    1.332853    0.030473
            19    2      -0.022769      3.567388      3.626142     0.448138    0.134762    0.219039
            20    2       1.903216      5.287456      3.636285    -1.769888    0.376795   -0.551853
            21    0       3.539217      7.144744      3.636801     1.920694    0.349045   -0.563393
            22    1       1.831011      3.635542      5.469819    -0.855897   -1.252309   -0.861641
            23    2       3.611923      5.397218      5.512186     0.865232    0.127794   -0.114766
            24    2       5.385694      7.080761      5.295227     0.396622    0.832473    1.349761
            25    0       3.534698      3.675349      7.235034     1.242412   -0.154158    0.661719
            26    1       5.543343      5.415765      7.316447    -0.200857   -0.175661   -0.067209
            27    2       7.240025      7.132538      7.241335    -0.583769    0.935845   -0.363228
 Energy
          8.495192977650
 PlusStress:  xx          yy          zz          yz          xz          xy
        83.10655    76.98547    83.44454    -0.44810    -2.98684    -0.54137
END_CFG

BEGIN_CFG
 Size
    27
 Supercell
         0.000000      5.415000      5.415000
         5.415000      0.000000      5.415000
         5.415000      5.415000      0.000000
 AtomData:  id type       cartes_x      cartes_y      cartes_z           fx          fy          fz
             1    0      -0.039360     -0.055110     -0.000766    -0.749398    1.366947   -0.801526
             2    1       1.859672      1.590259     -0.062548    -1.579318    1.755350    1.507485
             3    2       3.666460      3.581812     -0.041828    -0.310210   -0.473040   -0.480741
             4    2       1.744137      0.052744      1.922958     0.500280   -0.895992   -0.730680
             5    0       3.639797      1.842801      1.801586     0.297762   -1.773081   -0.402556
             6    1       5.353433      3.631828      1.736003     0.773799   -0.415027    1.207415
             7    2       3.743341      0.009325      3.634082    -0.956699    0.055846   -0.292956
             8    2       5.360876      1.837794      3.606633     0.603000   -0.488219    0.403846
             9    0       7.164284      3.619865      3.608580     0.002735    0.145334   -0.472550
            10    1       0.018486      1.818298      1.846672    -0.656206    0.022180   -0.643346
            11    2       2.041543      3.626838      1.771555    -1.667243   -0.253791    0.234787
            12    2       3.500031      5.483831      1.885411     1.463561   -0.468207   -0.927054