BEGIN_CFG
 Size
    5
 AtomData:  id type       cartes_x      cartes_y      cartes_z           fx          fy          fz
             1    0      -0.000000     -0.000009     -0.000010     0.000000    0.000014   -0.000097
             2    1      -0.000000      0.367524     -1.017850     0.000000   -0.013169    0.036436
             3    1      -0.000000     -1.082151     -0.007248     0.000000    0.038868    0.000321
             4    1       0.883595      0.357298      0.512510    -0.031818   -0.012856   -0.018330
             5    1      -0.883595      0.357298      0.512510     0.031818   -0.012856   -0.018330
 Energy
       -113.593293142418
 PlusStress:  xx          yy          zz          yz          xz          xy
        -0.05623    -0.05609    -0.05588    -0.00006    -0.00000    -0.00000
END_CFG

BEGIN_CFG
 Size
    5
 AtomData:  id type       cartes_x      cartes_y      cartes_z           fx          fy          fz
             1    0      -1.724530      0.409118      0.152253    -3.955208   -5.548344   -2.080263
             2    1      -1.244131      1.213760      0.477180     1.625057    2.487441    1.337631
             3    1      -1.273355     -0.051529     -0.763580     0.704001    0.344858    1.216771
             4    1      -2.093939     -0.403875      0.921762     1.643891    1.595356   -0.809859
             5    1      -2.720376      0.501494     -0.307116    -0.017741    1.120690    0.335720
 Energy
       -112.968218096861
 PlusStress:  xx          yy          zz          yz          xz          xy
         0.50870     0.64915    -1.45714     1.20523     1.15642    -0.35482
END_CFG

BEGIN_CFG
 Size
    5
 AtomData:  id type       cartes_x      cartes_y      cartes_z           fx          fy          fz
             1    0      -1.326535      1.904060     -0.387195     0.496708   -4.283180   -0.014298
             2    1      -1.073801      1.547131      0.689941    -0.524590    1.196731   -2.108172
             3    1      -0.825052      2.787017     -0.703922    -0.119767   -0.036450    0.234721
             4    1      -0.989166      0.929702     -1.054230    -0.451910    2.529236    1.486859
             5    1      -2.396825      1.871130     -0.582113     0.599558    0.593662    0.400890
 Energy
       -113.119297660916
 PlusStress:  xx          yy          zz          yz          xz          xy
        -0.98680    -2.94326    -3.41506    -0.50222    -0.34255     0.50207
END_CFG

BEGIN_CFG
 Size
    5
 AtomData:  id type       cartes_x      cartes_y      cartes_z           fx          fy          fz
             1    0      -1.450672      1.742005     -0.497139     0.291344    4.126803    0.655603
             2    1      -1.001029      0.848714     -0.424456     1.435224   -3.017375   -0.087467
             3    1      -0.811885      2.631361     -0.414509     1.096814   -0.145196    0.374924
             4    1      -1.857676      2.051680     -1.396969    -1.409085   -0.553994   -2.167579
             5    1      -2.086922      1.897578      0.322775    -1.414297   -0.410237    1.224519
 Energy
       -113.140003884680
 PlusStress:  xx          yy          zz          yz          xz          xy
         2.81932     2.33088     2.97908    -0.06917     0.30328    -0.96300
END_CFG

BEGIN_CFG
 Size
    5
 AtomData:  id type       cartes_x      cartes_y      cartes_z           fx          fy          fz
             1    0      -1.947741      1.776656     -0.447599    -1.274937    0.731357   -0.327706
             2    1      -1.932641      1.792992      0.592805     0.519840    0.211615    1.995831
             3    1      -0.982329      2.016296     -0.832271     0.413304   -0.371995   -0.425836
             4    1      -2.454493      0.846698     -0.620727     0.262636   -0.613603   -0.876795
             5    1      -2.627008      2.569519     -0.760544     0.079157    0.042627   -0.365494
 Energy
       -113.418035443298
 PlusStress:  xx          yy          zz          yz          xz          xy
         0.22000     0.51873     2.50646     0.45615     0.31162    -0.07394
END_CFG

BEGIN_CFG
 Size
    5
 AtomData:  id type       cartes_x      cartes_y      cartes_z           fx          fy          fz
             1    0      -0.796370      1.513875     -1.591092     3.715463    0.886340    1.035162
             2    1      -0.454307      0.741215     -2.299356    -0.650892    0.305472    0.832893
             3    1      -0.884079      1.164146     -0.519120    -0.358750    0.277365   -1.837432
             4    1       0.083746      2.290544     -1.540301    -1.267334   -1.486992    0.108271
             5    1      -1.516507      2.129436     -2.028573    -1.438487    0.017816   -0.138894
 Energy
       -113.241360188593
 PlusStress:  xx          yy          zz          yz          xz          xy
        -0.27067    -1.47696    -2.49332    -0.00235     0.64138    -1.24139
END_CFG

BEGIN_CFG
 Size
    5
 AtomData:  id type       cartes_x      cartes_y      cartes_z           fx          fy          fz
             1    0      -1.266253      1.756576     -1.360209     0.348862   -2.627222   -3.437177
             2    1      -1.826209      0.766551     -1.316197     0.778408    1.350125    0.913485
             3    1      -1.531572      2.005017     -2.404969    -0.070710    0.446470    0.494564
             4    1      -1.479822      2.540301     -0.727953    -0.474711    0.838721    1.309733
             5    1      -0.179443      1.588380     -1.448554    -0.581850   -0.008094    0.719395
 Energy
       -113.307701014967
 PlusStress:  xx          yy          zz          yz          xz          xy
        -0.94809    -0.56705     0.28804     0.12397    -0.14060    -1.06239
END_CFG

BEGIN_CFG
 Size
    5
 AtomData:  id type       cartes_x      cartes_y      cartes_z           fx          fy          fz
             1    0      -1.071385      0.412672     -0.922035    -0.224581    2.224106   -1.952954
             2    1      -1.271316     -0.602917     -0.769317    -0.357297   -0.848805    0.394184
             3    1      -0.038352      0.558173     -1.207215     0.094021   -0.118588    0.246587
             4    1      -1.630288      0.765389     -1.883634     0.615464   -0.599904    1.933499
             5    1      -1.266203      1.064586     -0.056371    -0.127606   -0.656809   -0.621317
 Energy
       -113.421947671530
 PlusStress:  xx          yy          zz          yz          xz          xy
        -0.15056     0.20500    -2.40723    -0.08752    -0.78367     0.51044
END_CFG

BEGIN_CFG
 Size
    5
 AtomData:  id type       cartes_x      cartes_y      cartes_z           fx          fy          fz
             1    0      -1.431294      1.897002     -1.655544    -4.775237    0.375207   -0.467988
             2    1      -1.395602      1.802682     -0.594868    -0.161922    0.014190    0.391002
             3    1      -1.569983      2.922255     -1.988204    -0.162120    0.082652    0.410133
             4    1      -0.634810      1.539701     -2.109088     3.961439   -1.621309   -1.655092
             5    1      -2.288444      1.263325     -2.165089     1.137840    1.149260    1.321945
 Energy
       -113.214304116968
 PlusStress:  xx          yy          zz          yz          xz          xy
         2.19663    -0.06556     0.35536     0.13729    -2.49428    -2.28739
END_CFG

BEGIN_CFG
 Size
    5
 AtomData:  id type       cartes_x      cartes_y      cartes_z           fx          fy          fz
             1    0      -1.910236      1.609059     -1.075856    -0.952885   -3.466055    0.176635
             2    1      -1.395561      1.664037     -0.144389    -0.297448    0.703425    0.693955
             3    1      -2.511908      2.373728     -1.489218    -0.294015    0.550856    0.246619
             4    1      -1.116622      1.386572     -1.743413     0.451123    0.000246   -0.888769
             5    1      -2.570337      0.614305     -0.974404     1.093225    2.211529   -0.228439
 Energy
       -113.284409544077
 PlusStress:  xx          yy          zz          yz          xz          xy
        -0.33981    -1.74009     1.11458     0.65171    -0.34577    -1.42904
END_CFG

BEGIN_CFG
 Size
    5
 AtomData:  id type       cartes_x      cartes_y      cartes_z           fx          fy          fz
             1    0      -2.080011      1.168339     -0.674974    -1.841202   -2.215866   -1.711454
             2    1      -3.210200      1.288357     -0.885302     2.093037    0.053244   -0.059814
             3    1      -1.664996      2.132301     -0.487477     0.240620   -0.297527   -0.116632
             4    1      -2.145152      0.481262      0.179267     0.701155    0.627756   -0.527424
             5    1      -1.562967      0.563888     -1.595323    -1.193609    1.832394    2.415324
 Energy
       -113.164387147463
 PlusStress:  xx          yy          zz          yz          xz          xy
        -2.92849    -1.81932    -2.68278    -1.21717     1.30238     0.72288
END_CFG

BEGIN_CFG
 Size
    5
 AtomData:  id type       cartes_x      cartes_y      cartes_z           fx          fy          fz
             1    0      -2.236018      2.500013     -0.505094     1.352353   -0.620845    2.433069
             2    1      -2.039364      2.197251      0.592742     0.276125   -0.597401   -1.752831
             3    1      -2.275168      1.580896     -1.174878    -0.148860    2.021138    1.132958
             4    1      -3.011762      3.156239     -0.215857    -1.808308    0.059764   -1.011576
             5    1      -1.494723      3.263611     -0.743567     0.328690   -0.862655   -0.801620
 Energy
       -113.017837577335
 PlusStress:  xx          yy          zz          yz          xz          xy
         1.70657    -2.29630    -2.78458    -1.78657    -0.19857    -0.88245
END_CFG

BEGIN_CFG
 Size
    5
 AtomData:  id type       cartes_x      cartes_y      cartes_z           fx          fy          fz
             1    0      -2.093234      3.371679      0.692720    -1.558694    1.313517    0.326248
             2    1      -1.360026      4.080332      0.393866     0.418463    0.675825   -0.669455
             3    1      -2.241933      3.583545      1.732804     0.274512   -0.578497    0.866299
             4    1      -3.147600      3.629399      0.371755     1.273798   -0.734235   -0.480253
             5    1      -1.659096      2.443023      0.407274    -0.408079   -0.676610   -0.042840
 Energy
       -113.356592098914
 PlusStress:  xx          yy          zz          yz          xz          xy
        -1.25421     0.79547     1.26747    -0.37486    -0.13190     1.06195
END_CFG

BEGIN_CFG
 Size
    5
 AtomData:  id type       cartes_x      cartes_y      cartes_z           fx          fy          fz
             1    0      -2.365806      3.095026      1.012906     0.227388   -3.361510    0.524369
             2    1      -2.974188      2.831578      1.865386    -0.423869   -0.815690    0.223712
             3    1      -2.885985      3.752707      0.479889    -2.295527    2.676249   -2.550639
             4    1      -1.565135      3.555235      1.440334     2.778838    1.105260    1.005478
             5    1      -2.047490      2.278383      0.317373    -0.286830    0.395691    0.797080
 Energy
       -113.249517016839
 PlusStress:  xx          yy          zz          yz          xz          xy
         3.58559     2.16052     1.42562    -1.92464     2.24947     0.11503
END_CFG

BEGIN_CFG
 Size
    5
 AtomData:  id type       cartes_x      cartes_y      cartes_z           fx          fy          fz
             1    0      -2.486775      3.083284      0.982149     0.957212    1.122488   -0.269761
             2    1      -2.946352      3.638864      1.818242     0.458381   -0.551830   -0.618737
             3    1      -1.948701      3.705980      0.270991    -0.214935    0.970766    0.135878
             4    1      -1.720018      2.379078      1.174556     0.690847   -0.817066    1.328955
             5    1      -3.164376      2.551455      0.401683    -1.891505   -0.724358   -0.576335
 Energy
       -113.350438958654
 PlusStress:  xx          yy          zz          yz          xz          xy
         1.48508     1.25852    -0.02371    -0.88849     1.76698     0.64029
END_CFG

BEGIN_CFG
 Size
    5
 AtomData:  id type       cartes_x      cartes_y      cartes_z           fx          fy          fz
             1    0      -1.354952      1.828860      1.911503     2.532000    1.984158   -0.647128
             2    1      -2.303632      1.963444      1.575986    -2.985337   -0.219245   -0.559660
             3    1      -1.109321      2.855582      2.303688     0.142217   -1.183237    0.348601
             4    1      -1.214566      0.983505      2.539975     0.114828   -0.147740    0.400054
             5    1      -0.751430      1.765455      0.992710     0.196292   -0.433936    0.458133
 Energy
       -113.345604953047
 PlusStress:  xx          yy          zz          yz          xz          xy
         3.00165    -1.09196     0.15499    -0.08464     0.94922    -0.36528
END_CFG

BEGIN_CFG
 Size
    5
 AtomData:  id type       cartes_x      cartes_y      cartes_z           fx          fy          fz
             1    0      -1.985953      2.205059      0.751147     2.179405   -1.479133   -2.493985
             2    1      -2.383691      1.453137      0.056395    -1.023042    0.400246    0.354782
             3    1      -1.459527      2.859463      0.028585    -0.497763    0.292641    0.757185
             4    1      -2.553773      2.702753      1.465588    -0.874250    0.540615    0.573037
             5    1      -1.229056      1.580924      1.208366     0.215650    0.245630    0.808980
 Energy
       -113.343995737492
 PlusStress:  xx          yy          zz          yz          xz          xy
         0.80451     0.00631    -0.01432     0.00902     0.54442    -0.12619
END_CFG

BEGIN_CFG
 Size
    5
 AtomData:  id type       cartes_x      cartes_y      cartes_z           fx          fy          fz
             1    0      -0.895493      2.570221      0.517062     1.044828   -1.200848   -3.871812
             2    1      -0.544419      1.979073      1.279826     0.316220   -1.396510    1.721888
             3    1      -1.321594      3.430499      0.878929    -1.232345    1.582339    0.580332
             4    1       0.021053      2.844800     -0.063895    -0.740648   -0.015127    0.257660
             5    1      -1.522212      1.959819     -0.225433     0.611945    1.030146    1.311932
 Energy
       -113.355664871526
 PlusStress:  xx          yy          zz          yz          xz          xy
        -0.42624     1.55384     0.39961    -1.24870    -0.22883    -1.82399
END_CFG

BEGIN_CFG
 Size
    5
 AtomData:  id type       cartes_x      cartes_y      cartes_z           fx          fy          fz
             1    0      -0.925684      2.489003      0.863692     0.508523   -2.829180    2.195064
             2    1       0.075648      2.229869      1.383049    -1.869188    0.005516   -0.121414
             3    1      -0.535529      3.187286      0.232213    -0.124671    2.149519   -1.473661
             4    1      -1.220036      1.610091      0.222613    -0.063984    1.089814    1.066855
             5    1      -1.737720      2.751936      1.634355     1.549321   -0.415669   -1.666844
 Energy
       -113.166129877017
 PlusStress:  xx          yy          zz          yz          xz          xy
        -3.15959     0.43240    -1.10098    -2.37351     0.34298     0.86092
END_CFG

BEGIN_CFG
 Size
    5
 AtomData:  id type       cartes_x      cartes_y      cartes_z           fx          fy          fz
             1    0      -1.270365      2.199435      1.900101    -2.008688    0.208985   -3.170328
             2    1      -0.905749      1.640827      2.669225     0.904590   -0.560355    2.380709
             3    1      -1.733540      1.377171      1.272930     0.075034    1.080917    0.379474
             4    1      -2.072600      2.971417      2.116493     1.423770   -1.038662   -0.108890
             5    1      -0.456748      2.585373      1.278986    -0.394706    0.309115    0.519035
 Energy
       -113.321862454715
 PlusStress:  xx          yy          zz          yz          xz          xy
        -1.16826    -1.25831     1.24712    -1.52566     1.20193     0.37978
END_CFG

BEGIN_CFG
 Size
    5
 AtomData:  id type       cartes_x      cartes_y      cartes_z           fx          fy          fz
             1    0      -1.159231      2.099953      2.211603    -0.591862   -0.836070   -0.566234
             2    1      -0.230558      2.394311      2.619509     0.969791   -0.043416    0.297179
             3    1      -1.134488      1.968974      1.137985     0.189129    0.185522   -0.174958
             4    1      -1.492045      1.121263      2.566814     0.105673    0.355480    0.265650
             5    1      -1.822116      2.896239      2.456961    -0.672731    0.338484    0.178362
 Energy
       -113.538130781346
 PlusStress:  xx          yy          zz          yz          xz          xy
         1.31607    -0.11545     0.44718    -0.00757     0.06501    -0.37841
END_CFG

