BEGIN_CFG
 Size
    2
 AtomData:  id type       cartes_x      cartes_y      cartes_z           fx          fy          fz
             1    0       0.388362     -0.000000     -0.000000    -0.001256    0.000000    0.000000
             2    0      -0.388362      0.000000      0.000000     0.001256    0.000000    0.000000
 Energy
        -26.740331340075
 PlusStress:  xx          yy          zz          yz          xz          xy
        -0.00098     0.00000     0.00000     0.00000     0.00000     0.00000
END_CFG

BEGIN_CFG
 Size
    2
 AtomData:  id type       cartes_x      cartes_y      cartes_z           fx          fy          fz
             1    0       1.474026      5.312450     -1.627169    -0.180666   -0.424379    0.379849
             2    0       1.702476      5.849071     -2.107483     0.180666    0.424379   -0.379849
 Energy
        -26.734167982917
 PlusStress:  xx          yy          zz          yz          xz          xy
         0.04127     0.22773     0.18245    -0.20384    -0.08678     0.09695
END_CFG

BEGIN_CFG
 Size
    2
 AtomData:  id type       cartes_x      cartes_y      cartes_z           fx          fy          fz
             1    0      -1.760653      6.091512     -3.725743     0.046292   -0.154071   -0.225533
             2    0      -1.888737      6.517806     -3.101722    -0.046292    0.154071    0.225533
 Energy
        -26.738938807232
 PlusStress:  xx          yy          zz          yz          xz          xy
         0.00593     0.06568     0.14074     0.09614    -0.02889    -0.01973
END_CFG

BEGIN_CFG
 Size
    2
 AtomData:  id type       cartes_x      cartes_y      cartes_z           fx          fy          fz
             1    0       1.264859      6.447399      2.918265    -0.028472    0.500490    0.368943
             2    0       1.299383      5.840529      2.470903     0.028472   -0.500490   -0.368943
 Energy
        -26.733668320435
 PlusStress:  xx          yy          zz          yz          xz          xy
         0.00098     0.30373     0.16505     0.22390    -0.01274    -0.01728
END_CFG

BEGIN_CFG
 Size
    2
 AtomData:  id type       cartes_x      cartes_y      cartes_z           fx          fy          fz
             1    0      -1.462122      3.229215      4.975702     0.447658    0.533833   -0.918489
             2    0      -1.140522      3.612723      4.315855    -0.447658   -0.533833    0.918489
 Energy
        -26.709005350346
 PlusStress:  xx          yy          zz          yz          xz          xy
        -0.14397    -0.20473    -0.60606     0.35225     0.29539    -0.17168
END_CFG

BEGIN_CFG
 Size
    2
 AtomData:  id type       cartes_x      cartes_y      cartes_z           fx          fy          fz
             1    0       2.081150      4.042686      1.058001     1.446976    0.641457   -1.442622
             2    0       1.600221      3.829486      1.537483    -1.446976   -0.641457    1.442622
 Energy
        -26.675905508428
 PlusStress:  xx          yy          zz          yz          xz          xy
         0.69589     0.13676     0.69171    -0.30757    -0.69380     0.30850
END_CFG

BEGIN_CFG
 Size
    2
 AtomData:  id type       cartes_x      cartes_y      cartes_z           fx          fy          fz
             1    0       3.118380      4.391437      1.462239    -2.757023   -0.958186   -0.089361
             2    0       2.217696      4.078410      1.433046     2.757023    0.958186    0.089361
 Energy
        -26.442690831260
 PlusStress:  xx          yy          zz          yz          xz          xy
        -2.48321    -0.29994    -0.00261    -0.02797    -0.08049    -0.86302
END_CFG

BEGIN_CFG
 Size
    2
 AtomData:  id type       cartes_x      cartes_y      cartes_z           fx          fy          fz
             1    0      -1.472790      7.033115      4.004277    -1.904710   -2.217451   -0.732947
             2    0      -1.035556      7.542140      4.172528     1.904710    2.217451    0.732947
 Energy
        -26.624566807304
 PlusStress:  xx          yy          zz          yz          xz          xy
         0.83280     1.12874     0.12332     0.37309     0.32047     0.96954
END_CFG

BEGIN_CFG
 Size
    2
 AtomData:  id type       cartes_x      cartes_y      cartes_z           fx          fy          fz
             1    0      -0.225471      4.300783      4.341409     0.197189    0.004773   -0.293525
             2    0       0.215441      4.311456      3.685091    -0.197189   -0.004773    0.293525
 Energy
        -26.737806072868
 PlusStress:  xx          yy          zz          yz          xz          xy
        -0.08694    -0.00005    -0.19265     0.00313     0.12942    -0.00210
END_CFG

BEGIN_CFG
 Size
    2
 AtomData:  id type       cartes_x      cartes_y      cartes_z           fx          fy          fz
             1    0       0.697762      4.552799      2.854951    -0.165996    1.142220    0.553503
             2    0       0.589475      5.297921      3.216026     0.165996   -1.142220   -0.553503
 Energy
        -26.700661069921
 PlusStress:  xx          yy          zz          yz          xz          xy
        -0.01798    -0.85109    -0.19986    -0.41243     0.05994     0.12369
END_CFG

BEGIN_CFG
 Size
    2
 AtomData:  id type       cartes_x      cartes_y      cartes_z           fx          fy          fz
             1    0       0.247806      5.515333      2.436494     1.125774   -0.799759    0.579729
             2    0      -0.299788      5.904348      2.154505    -1.125774    0.799759   -0.579729
 Energy
        -26.706201023023
 PlusStress:  xx          yy          zz          yz          xz          xy
         0.61647     0.31112     0.16348    -0.22552     0.31746    -0.43794
END_CFG

BEGIN_CFG
 Size
    2
 AtomData:  id type       cartes_x      cartes_y      cartes_z           fx          fy          fz
             1    0      -1.040148      7.785676      2.572052     0.558324    0.347730    0.048362
             2    0      -0.359486      8.209599      2.631011    -0.558324   -0.347730   -0.048362
 Energy
        -26.731037246794
 PlusStress:  xx          yy          zz          yz          xz          xy
        -0.38003    -0.14741    -0.00285    -0.02050    -0.03292    -0.23669
END_CFG

BEGIN_CFG
 Size
    2
 AtomData:  id type       cartes_x      cartes_y      cartes_z           fx          fy          fz
             1    0       0.681354      7.588105      5.565223    -1.434491   -0.850965    2.047108
             2    0       0.176416      7.288567      6.285801     1.434491    0.850965   -2.047108
 Energy
        -26.510854634001
 PlusStress:  xx          yy          zz          yz          xz          xy
        -0.72433    -0.25490    -1.47510     0.61319     1.03366    -0.42968
END_CFG

BEGIN_CFG
 Size
    2
 AtomData:  id type       cartes_x      cartes_y      cartes_z           fx          fy          fz
             1    0       2.088060      8.304691      7.730366    -0.409428    0.794074   -2.363848
             2    0       1.939007      8.593775      6.869803     0.409428   -0.794074    2.363848
 Energy
        -26.535394028954
 PlusStress:  xx          yy          zz          yz          xz          xy
        -0.06103    -0.22955    -2.03424     0.68335    -0.35234     0.11836
END_CFG

BEGIN_CFG
 Size
    2
 AtomData:  id type       cartes_x      cartes_y      cartes_z           fx          fy          fz
             1    0       3.320472      9.891695      3.694510     0.578909    0.085005    0.500777
             2    0       3.928693      9.981004      4.220643    -0.578909   -0.085005   -0.500777
 Energy
        -26.727385637306
 PlusStress:  xx          yy          zz          yz          xz          xy
        -0.35210    -0.00759    -0.26348    -0.04472    -0.30458    -0.05170
END_CFG

BEGIN_CFG
 Size
    2
 AtomData:  id type       cartes_x      cartes_y      cartes_z           fx          fy          fz
             1    0       3.160252     11.633037      9.749455     0.036371   -0.026484    0.000499
             2    0       3.789464     11.174871      9.758096    -0.036371    0.026484   -0.000499
 Energy
        -26.740292634035
 PlusStress:  xx          yy          zz          yz          xz          xy
        -0.02289    -0.01213    -0.00000     0.00023    -0.00031     0.01666
END_CFG

BEGIN_CFG
 Size
    2
 AtomData:  id type       cartes_x      cartes_y      cartes_z           fx          fy          fz
             1    0       1.828040     10.106676     12.877009     0.031356    0.048475    0.115877
             2    0       1.641099      9.817674     12.186165    -0.031356   -0.048475   -0.115877
 Energy
        -26.740019888852
 PlusStress:  xx          yy          zz          yz          xz          xy
         0.00586     0.01401     0.08005     0.03349     0.02166     0.00906
END_CFG

BEGIN_CFG
 Size
    2
 AtomData:  id type       cartes_x      cartes_y      cartes_z           fx          fy          fz
             1    0      -0.199036     11.365494     14.121974    -0.101362    0.163787    0.486286
             2    0      -0.052137     11.128125     13.417221     0.101362   -0.163787   -0.486286
 Energy
        -26.735554793676
 PlusStress:  xx          yy          zz          yz          xz          xy
         0.01489     0.03888     0.34271     0.11543    -0.07143    -0.02406
END_CFG

BEGIN_CFG
 Size
    2
 AtomData:  id type       cartes_x      cartes_y      cartes_z           fx          fy          fz
             1    0      -3.638841     10.538988     16.052024    -0.389152    0.026673    0.552386
             2    0      -4.101987     10.570733     16.709442     0.389152   -0.026673   -0.552386
 Energy
        -26.730529641325
 PlusStress:  xx          yy          zz          yz          xz          xy
        -0.18023    -0.00085    -0.36315    -0.01754     0.25584     0.01235
END_CFG

BEGIN_CFG
 Size
    2
 AtomData:  id type       cartes_x      cartes_y      cartes_z           fx          fy          fz
             1    0      -3.799826     13.374588     19.627285    -0.578117   -1.053806   -1.424661
             2    0      -4.069813     12.882449     18.961953     0.578117    1.053806    1.424661
 Energy
        -26.644604008808
 PlusStress:  xx          yy          zz          yz          xz          xy
        -0.15608    -0.51862    -0.94787    -0.70113    -0.38464    -0.28451
END_CFG

BEGIN_CFG
 Size
    2
 AtomData:  id type       cartes_x      cartes_y      cartes_z           fx          fy          fz
             1    0      -4.404139     16.212205     19.989760    -0.464066   -0.297005   -2.771678
             2    0      -4.289862     16.285343     20.672290     0.464066    0.297005    2.771678
 Energy
        -26.636489222292
 PlusStress:  xx          yy          zz          yz          xz          xy
         0.05303     0.02172     1.89175     0.20272     0.31674     0.03394
END_CFG

