BEGIN_CFG
 Size
    27
 Supercell
         0.000000      5.415000      5.415000
         5.415000      0.000000      5.415000
         5.415000      5.415000      0.000000
 AtomData:  id type       cartes_x      cartes_y      cartes_z           fx          fy          fz
             1    0       0.000000      0.000000      0.000000     0.000000   -0.000000    0.000000
             2    0       1.805000      1.805000      0.000000     0.000000    0.000000    0.000000
             3    0       3.610000      3.610000      0.000000    -0.000000    0.000000    0.000000
             4    0       1.805000      0.000000      1.805000     0.000000   -0.000000    0.000000
             5    0       3.610000      1.805000      1.805000    -0.000000    0.000000    0.000000
             6    0       5.415000      3.610000      1.805000    -0.000000   -0.000000   -0.000000
             7    0       3.610000      0.000000      3.610000     0.000000    0.000000   -0.000000
             8    0       5.415000      1.805000      3.610000    -0.000000    0.000000    0.000000
             9    0       7.220000      3.610000      3.610000     0.000000    0.000000   -0.000000
            10    0       0.000000      1.805000      1.805000    -0.000000    0.000000    0.000000
            11    0       1.805000      3.610000      1.805000    -0.000000   -0.000000   -0.000000
            12    0       3.610000      5.415000      1.805000    -0.000000   -0.000000   -0.000000
            13    0       1.805000      1.805000      3.610000    -0.000000   -0.000000   -0.000000
            14    0       3.610000      3.610000      3.610000    -0.000000   -0.000000    0.000000
            15    0       5.415000      5.415000      3.610000    -0.000000   -0.000000   -0.000000
            16    0       3.610000      1.805000      5.415000     0.000000    0.000000   -0.000000
            17    0       5.415000      3.610000      5.415000    -0.000000    0.000000   -0.000000
            18    0       7.220000      5.415000      5.415000     0.000000   -0.000000   -0.000000
            19    0       0.000000      3.610000      3.610000     0.000000   -0.000000   -0.000000
            20    0       1.805000      5.415000      3.610000     0.000000   -0.000000   -0.000000
            21    0       3.610000      7.220000      3.610000     0.000000   -0.000000   -0.000000
            22    0       1.805000      3.610000      5.415000    -0.000000   -0.000000   -0.000000
            23    0       3.610000      5.415000      5.415000    -0.000000   -0.000000   -0.000000
            24    0       5.415000      7.220000      5.415000    -0.000000    0.000000   -0.000000
            25    0       3.610000      3.610000      7.220000    -0.000000    0.000000    0.000000
            26    0       5.415000      5.415000      7.220000    -0.000000   -0.000000    0.000000
            27    0       7.220000      7.220000      7.220000     0.000000    0.000000    0.000000
 Energy
         -0.153400806682
 PlusStress:  xx          yy          zz          yz          xz          xy
        -4.32493    -4.32493    -4.32493    -0.00000     0.00000    -0.00000
END_CFG

BEGIN_CFG
 Size
    27
 Supercell
         0.000000      5.415000      5.415000
         5.415000      0.000000      5.415000
         5.415000      5.415000      0.000000
 AtomData:  id type       cartes_x      cartes_y      cartes_z           fx          fy          fz
             1    0       0.005511     -0.018809      0.013573    -0.092777    0.184323   -0.118950
             2    0       1.822011      1.769714     -0.023551    -0.185157    0.209657    0.215154
             3    0       3.612312      3.604280     -0.000304     0.023749   -0.006256   -0.072246
             4    0       1.789572      0.015905      1.819067     0.098724   -0.116246   -0.019543
             5    0       3.611194      1.825387      1.813455     0.057858   -0.209287   -0.080653
             6    0       5.399459      3.616669      1.787658     0.129315   -0.066389    0.109594
             7    0       3.625888     -0.000903      3.606657    -0.059527    0.026477    0.036108
             8    0       5.402685      1.827111      3.607205     0.134101   -0.197899    0.027451
             9    0       7.212253      3.603631      3.619627    -0.000348    0.076212   -0.112634
            10    0       0.006609      1.812465      1.812792    -0.086437    0.009588   -0.097141
            11    0       1.843734      3.602650      1.795736    -0.246836   -0.007414    0.071981
            12    0       3.595282      5.426141      1.825419     0.153512   -0.026864   -0.189568
            13    0       1.802939      1.789805      3.595088     0.087968    0.151663    0.207264
            14    0       3.621767      3.623443      3.619823    -0.053723   -0.097155    0.009147
            15    0       5.402964      5.419199      3.612110     0.027272   -0.060293   -0.010485
            16    0       3.613955      1.820761      5.419044    -0.020218   -0.135238   -0.015569
            17    0       5.427279      3.611222      5.420229    -0.023580   -0.037338    0.066930
            18    0       7.231417      5.388646      5.409218    -0.000186    0.216287    0.009869
            19    0      -0.008507      3.598445      3.605024     0.120091    0.026573    0.025191
            20    0       1.832038      5.399341      3.627512    -0.320359   -0.012933   -0.133515
            21    0       3.579564      7.213943      3.612944     0.258372    0.074980   -0.028207
            22    0       1.815602      3.622863      5.429348    -0.133500   -0.188602   -0.085935
            23    0       3.603693      5.406638      5.430517     0.136617    0.044850    0.048830
            24    0       5.411540      7.196928      5.394503     0.070223    0.115555    0.150542
            25    0       3.593371      3.618992      7.222576     0.100703   -0.044618    0.055447
            26    0       5.427488      5.407273      7.222867     0.026944    0.044835    0.027877
            27    0       7.231314      7.214405      7.228261    -0.202801    0.025533   -0.096939
 Energy
         -0.096756374355
 PlusStress:  xx          yy          zz          yz          xz          xy
        -4.11024    -4.07715    -4.09723     0.03239    -0.01890    -0.03044
END_CFG

BEGIN_CFG
 Size
    27
 Supercell
         0.000000      5.415000      5.415000
         5.415000      0.000000      5.415000
         5.415000      5.415000      0.000000
 AtomData:  id type       cartes_x      cartes_y      cartes_z           fx          fy          fz
             1    0       0.010670     -0.036919      0.026694    -0.177251    0.364140   -0.239870
             2    0       1.838319      1.735223     -0.046286    -0.387790    0.427931    0.453032
             3    0       3.614714      3.598537     -0.000882     0.052171   -0.020946   -0.163358
             4    0       1.774518      0.031368      1.833060     0.196672   -0.247504   -0.060370
             5    0       3.612608      1.844980      1.821605     0.121633   -0.429929   -0.155551
             6    0       5.384409      3.623086      1.770731     0.249827   -0.132625    0.235682
             7    0       3.641549     -0.001705      3.603450    -0.115447    0.054243    0.070042
             8    0       5.390878      1.848471      3.604515     0.251787   -0.366532    0.049447
             9    0       7.204505      3.597552      3.628827     0.004819    0.142447   -0.221993
            10    0       0.012891      1.819966      1.820215    -0.176266    0.014727   -0.193369
            11    0       1.881531      3.595271      1.786744    -0.503159    0.003022    0.148310
            12    0       3.581147      5.437179      1.845118     0.312220   -0.061515   -0.378889
            13    0       1.801212      1.775186      3.580964     0.169800    0.298108    0.412225
            14    0       3.633329      3.636516      3.629682    -0.097595   -0.194870    0.014322
            15    0       5.391031      5.423169      3.614181     0.058020   -0.122473   -0.029591
            16    0       3.617834      1.836008      5.423029    -0.038009   -0.255361   -0.027149
            17    0       5.439468      3.612303      5.425712    -0.057170   -0.070522    0.128205
            18    0       7.242834      5.363113      5.403474    -0.003964    0.428201    0.021718
            19    0      -0.016558      3.586991      3.600143     0.219130    0.054935    0.058594
            20    0       1.857859      5.383632      3.644518    -0.625667   -0.055870   -0.276305
            21    0       3.550108      7.208171      3.615780     0.544405    0.162525   -0.062124
            22    0       1.825698      3.635011      5.443371    -0.259763   -0.361378   -0.156202
            23    0       3.597904      5.398446      5.446220     0.287713    0.088312    0.097581
            24    0       5.408347      7.174294      5.374578     0.121928    0.230003    0.297284
            25    0       3.577124      3.627814      7.225362     0.200511   -0.090195    0.121324
            26    0       5.440079      5.399716      7.225841     0.050716    0.083308    0.048995
            27    0       7.241859      7.208907      7.236155    -0.399269    0.057817   -0.191989
 Energy
          0.067838429922
 PlusStress:  xx          yy          zz          yz          xz          xy
        -3.49889    -3.36269    -3.43785     0.12601    -0.07343    -0.11721
END_CFG

BEGIN_CFG
 Size
    27
 Supercell
         0.000000      5.415000      5.415000
         5.415000      0.000000      5.415000
         5.415000      5.415000      0.000000
 AtomData:  id type       cartes_x      cartes_y      cartes_z           fx          fy          fz
             1    0       0.015156     -0.053646      0.038904    -0.249904    0.535721   -0.360452
             2    0       1.853156      1.702357     -0.067301    -0.600804    0.647428    0.705991
             3    0       3.617315      3.592714     -0.002080     0.082700   -0.042051   -0.266416
             4    0       1.760212      0.045892      1.846824     0.289311   -0.388810   -0.122499
             5    0       3.614484      1.862941      1.829163     0.190613   -0.655420   -0.220752
             6    0       5.370307      3.629000      1.754700     0.358176   -0.198211    0.373585
             7    0       3.656773     -0.002302      3.600510    -0.166586    0.081379    0.100504
             8    0       5.380028      1.868439      3.602012     0.353866   -0.508906    0.068092
             9    0       7.196775      3.592013      3.637184     0.015264    0.196220   -0.323883
            10    0       0.018503      1.827523      1.826904    -0.263117    0.013480   -0.283267
            11    0       1.917418      3.587904      1.778316    -0.760039    0.033416    0.226132
            12    0       3.568197      5.447984      1.863378     0.466753   -0.104894   -0.560474
            13    0       1.800130      1.761698      3.568404     0.242956    0.438304    0.609000
            14    0       3.644522      3.648850      3.639594    -0.132624   -0.291316    0.014386
            15    0       5.379318      5.426674      3.616139     0.093472   -0.183544   -0.057170
            16    0       3.621568      1.850286      5.426911    -0.053041   -0.357654   -0.034432
            17    0       5.451440      3.613116      5.431682    -0.098405   -0.098500    0.180470
            18    0       7.254236      5.339205      5.397813    -0.011284    0.628893    0.036366
            19    0      -0.023778      3.575746      3.595485     0.297628    0.085565    0.097947
            20    0       1.881306      5.367711      3.660474    -0.903804   -0.117081   -0.421391
            21    0       3.522719      7.203016      3.618381     0.841165    0.255604   -0.102947
            22    0       1.834808      3.645786      5.456800    -0.375955   -0.514301   -0.212307
            23    0       3.593208      5.390589      5.462293     0.441214    0.129472    0.139689
            24    0       5.405616      7.152534      5.355781     0.158268    0.342463    0.438363
            25    0       3.561638      3.636294      7.228609     0.296246   -0.137346    0.193748
            26    0       5.452861      5.392475      7.229000     0.069401    0.114309    0.064001
            27    0       7.250888      7.203629      7.243319    -0.581473    0.095781   -0.282284
 Energy
          0.321123731328
 PlusStress:  xx          yy          zz          yz          xz          xy
        -2.58654    -2.27580    -2.43215     0.26856    -0.15773    -0.24866
END_CFG

BEGIN_CFG
 Size
    27
 Supercell
         0.000000      5.415000      5.415000
         5.415000      0.000000      5.415000
         5.415000      5.415000      0.000000
 AtomData:  id type       cartes_x      cartes_y      cartes_z           fx          fy          fz
             1    0       0.018694     -0.068340      0.049747    -0.308337    0.693345   -0.475737
             2    0       1.865711      1.671948     -0.085636    -0.808908    0.855794    0.956438
             3    0       3.620229      3.586732     -0.004290     0.111356   -0.066758   -0.370486
             4    0       1.747003      0.058941      1.860123     0.371742   -0.531599   -0.201208
             5    0       3.617083      1.878414      1.835884     0.260880   -0.875140   -0.273683
             6    0       5.357564      3.634162      1.740086     0.451198   -0.261052    0.514978
             7    0       3.671364     -0.002590      3.597951    -0.212063    0.106144    0.126440
             8    0       5.370521      1.886476      3.599767     0.440817   -0.627944    0.085665
             9    0       7.189104      3.587219      3.644312     0.030153    0.236209   -0.413817
            10    0       0.023116      1.835131      1.832518    -0.339232    0.003514   -0.360905
            11    0       1.950420      3.580664      1.770746    -1.004213    0.082035    0.300806
            12    0       3.557019      5.458391      1.879512     0.605812   -0.155838   -0.725350
            13    0       1.799970      1.749874      3.558155     0.304602    0.568997    0.788630
            14    0       3.655210      3.660078      3.649561    -0.161147   -0.384000    0.008583
            15    0       5.367960      5.429482      3.617880     0.134926   -0.239516   -0.091566
            16    0       3.625101      1.863206      5.430662    -0.065395   -0.440900   -0.037427
            17    0       5.463039      3.613554      5.438337    -0.143452   -0.120275    0.220395
            18    0       7.265595      5.317684      5.392289    -0.021729    0.810792    0.053967
            19    0      -0.029868      3.564825      3.591199     0.357940    0.118800    0.140500
            20    0       1.901321      5.351346      3.674832    -1.139013   -0.179227   -0.558505
            21    0       3.498523      7.198831      3.620591     1.122369    0.342907   -0.148285
            22    0       1.842490      3.654610      5.469424    -0.478097   -0.642910   -0.256059
            23    0       3.590187      5.383224      5.478897     0.580261    0.167995    0.167025
            24    0       5.403486      7.132074      5.338649     0.183592    0.451156    0.571545
            25    0       3.547277      3.644252      7.232592     0.384249   -0.186591    0.267121
            26    0       5.465908      5.385668      7.232402     0.081576    0.137325    0.074246
            27    0       7.257710      7.198714      7.249412    -0.739885    0.136741   -0.363312
 Energy
          0.629110211966
 PlusStress:  xx          yy          zz          yz          xz          xy
        -1.51969    -0.97107    -1.22568     0.43905    -0.26122    -0.40611
END_CFG

BEGIN_CFG
 Size
    27
 Supercell
         0.000000      5.415000      5.415000
         5.415000      0.000000      5.415000
         5.415000      5.415000      0.000000
 AtomData:  id type       cartes_x      cartes_y      cartes_z           fx          fy          fz
             1    0       0.021061     -0.080402      0.058783    -0.351475    0.828735   -0.578037
             2    0       1.875196      1.644788     -0.100340    -0.988559    1.036621    1.176693
             3    0       3.623566      3.580496     -0.007905     0.133128   -0.091625   -0.461336
             4    0       1.735205      0.069971      1.872658     0.439301   -0.663582   -0.286803
             5    0       3.620672      1.890565      1.841566     0.324556   -1.073890   -0.313499
             6    0       5.346534      3.638332      1.727427     0.525746   -0.316908    0.648088
             7    0       3.685150     -0.002474      3.595872    -0.251369    0.127020    0.147009
             8    0       5.362687      1.902129      3.597848     0.512592   -0.725771    0.104275
             9    0       7.181546      3.583322      3.649869     0.048237    0.262365   -0.486980
            10    0       0.026442      1.842752      1.836762    -0.396507   -0.017655   -0.420204
            11    0       1.979610      3.573735      1.764318    -1.218003    0.142012    0.366351
            12    0       3.548140      5.468207      1.892892     0.717486   -0.210967   -0.863872
            13    0       1.800966      1.740209      3.550900     0.351699    0.683859    0.938794
            14    0       3.665288      3.669849      3.659561    -0.186276   -0.469703   -0.003289
            15    0       5.357114      5.431382      3.619274     0.183382   -0.285473   -0.129270
            16    0       3.628385      1.874453      5.434271    -0.075419   -0.504917   -0.036394
            17    0       5.474094      3.613537      5.445828    -0.187619   -0.134728    0.244737
            18    0       7.276871      5.299242      5.386970    -0.034741    0.965767    0.073835
            19    0      -0.034599      3.554356      3.587446     0.403366    0.154495    0.183164
            20    0       1.917014      5.334301      3.687069    -1.314516   -0.220956   -0.674677
            21    0       3.478587      7.195948      3.622238     1.355021    0.410022   -0.190872
            22    0       1.848358      3.660993      5.481075    -0.560981   -0.742165   -0.288859
            23    0       3.589368      5.376497      5.496134     0.685685    0.203788    0.171080
            24    0       5.402053      7.113326      5.323685     0.202306    0.552847    0.693459
            25    0       3.534374      3.651503      7.237588     0.460604   -0.237928    0.334404
            26    0       5.479264      5.379382      7.236086     0.086073    0.152230    0.081236
            27    0       7.261723      7.194318      7.254126    -0.863716    0.176507   -0.429031
 Energy
          0.946038699272
 PlusStress:  xx          yy          zz          yz          xz          xy
        -0.47231     0.35695    -0.00495     0.61064    -0.36855    -0.56409
END_CFG

BEGIN_CFG
 Size
    27
 Supercell
         0.000000      5.415000      5.415000
         5.415000      0.000000      5.415000
         5.415000      5.415000      0.000000
 AtomData:  id type       cartes_x      cartes_y      cartes_z           fx          fy          fz
             1    0       0.022094     -0.089318      0.065626    -0.379532    0.931643   -0.657886
             2    0       1.880929      1.621563     -0.110578    -1.112434    1.173034    1.334303
             3    0       3.627408      3.573912     -0.013272     0.142821   -0.112772   -0.523385
             4    0       1.725075      0.078482      1.884104     0.488368   -0.770010   -0.365979
             5    0       3.625493      1.898640      1.846058     0.370565   -1.233129   -0.340980
             6    0       5.337500      3.641300      1.717228     0.578762   -0.359741    0.759025
             7    0       3.697982     -0.001877      3.594351    -0.284435    0.142693    0.161558
             8    0       5.356798      1.915027      3.596324     0.568696   -0.803605    0.125569
             9    0       7.174172      3.580421      3.653577     0.068082    0.275822   -0.538462
            10    0       0.028263      1.850307      1.839411    -0.427959   -0.052060   -0.455619
            11    0       2.004176      3.567345      1.759281    -1.381200    0.201586    0.416465
            12    0       3.541985      5.477221      1.902993     0.791092   -0.265230   -0.967086
            13    0       1.803297      1.733141      3.547209     0.381485    0.774008    1.045243
            14    0       3.674658      3.677837      3.669549    -0.211268   -0.544610   -0.020782
            15    0       5.346965      5.432197      3.620177     0.239036   -0.316007   -0.164952
            16    0       3.631384      1.883783      5.437742    -0.083528   -0.550242   -0.031790
            17    0       5.484436      3.613008      5.454248    -0.226154   -0.140580    0.250521
            18    0       7.288016      5.284465      5.381932    -0.049795    1.085745    0.094503
            19    0      -0.037799      3.544473      3.584388     0.437378    0.191793    0.222667
            20    0       1.927716      5.316417      3.696745    -1.416711   -0.221487   -0.756569
            21    0       3.463794      7.194621      3.623160     1.506317    0.442414   -0.220171
            22    0       1.852096      3.664558      5.491630    -0.618950   -0.807082   -0.311524
            23    0       3.591151      5.370543      5.514021     0.740199    0.236260    0.145058
            24    0       5.401389      7.096676      5.311354     0.218044    0.642824    0.799297
            25    0       3.523219      3.657850      7.243854     0.521614   -0.290459    0.387741
            26    0       5.492947      5.373674      7.240078     0.081779    0.159103    0.086186
            27    0       7.262458      7.190592      7.257211    -0.942273    0.210091   -0.472951
 Energy
          1.221742672330
 PlusStress:  xx          yy          zz          yz          xz          xy
         0.38528     1.50743     1.03487     0.75532    -0.46120    -0.69250
END_CFG

BEGIN_CFG
 Size
    27
 Supercell
         0.000000      5.415000      5.415000
         5.415000      0.000000      5.415000
         5.415000      5.415000      0.000000
 AtomData:  id type       cartes_x      cartes_y      cartes_z           fx          fy          fz
             1    0       0.021686     -0.094697      0.069971    -0.393645    0.991721   -0.706007
             2    0       1.882439      1.602790     -0.115751    -1.157654    1.252933    1.402237
             3    0       3.631793      3.566901     -0.020626     0.136224   -0.126122   -0.542727
             4    0       1.716799      0.084071      1.894161     0.517156   -0.836600   -0.424987
             5    0       3.631721      1.902034      1.849256     0.387411   -1.334371   -0.357827
             6    0       5.330663      3.642902      1.709911     0.607546   -0.383184    0.834334
             7    0       3.709735     -0.000738      3.593443    -0.311683    0.152018    0.169599
             8    0       5.353069      1.924874      3.595278     0.608364   -0.861989    0.150478
             9    0       7.167056      3.578566      3.655242     0.088334    0.278545   -0.563762
            10    0       0.028459      1.857664      1.840330    -0.429288   -0.100485   -0.462954
            11    0       2.023500      3.561720      1.755824    -1.475231    0.246674    0.445910
            12    0       3.538832      5.485229      1.909422     0.819128   -0.313149   -1.028262
            13    0       1.807076      1.729011      3.547485     0.392201    0.830092    1.094956
            14    0       3.683226      3.683757      3.679457    -0.238850   -0.604600   -0.042859
            15    0       5.337723      5.431813      3.620454     0.300751   -0.326096   -0.192072
            16    0       3.634065      1.891025      5.441092    -0.090042   -0.577868   -0.024234
            17    0       5.493919      3.611945      5.463620    -0.255138   -0.136514    0.235364
            18    0       7.298971      5.273809      5.377252    -0.066548    1.163715    0.114059
            19    0      -0.039338      3.535317      3.582175     0.462977    0.229043    0.255741
            20    0       1.933041      5.297692      3.703549    -1.439006   -0.167224   -0.794021
            21    0       3.454720      7.194973      3.623247     1.553099    0.429478   -0.226987
            22    0       1.853485      3.665060      5.501003    -0.647286   -0.833820   -0.324577
            23    0       3.595745      5.365486      5.532458     0.733102    0.263459    0.086173
            24    0       5.401551      7.082467      5.302057     0.233138    0.715542    0.883181
            25    0       3.514045      3.663094      7.251591     0.564432   -0.342167    0.419423
            26    0       5.506940      5.368570      7.244397     0.067484    0.158095    0.089685
            27    0       7.259616      7.187664      7.258501    -0.966977    0.232873   -0.489864
 Energy
          1.412864536733
 PlusStress:  xx          yy          zz          yz          xz          xy
         0.91944     2.31400     1.73084     0.84903    -0.52151    -0.76072
END_CFG

BEGIN_CFG
 Size
    27
 Supercell
         0.000000      5.415000      5.415000
         5.415000      0.000000      5.415000
         5.415000      5.415000      0.000000
 AtomData:  id type       cartes_x      cartes_y      cartes_z           fx          fy          fz
             1    0       0.019784     -0.096313      0.071636    -0.395216    1.001143   -0.715737
             2    0       1.879555      1.588773     -0.115601    -1.113604    1.273082    1.368954
             3    0       3.636694      3.559410     -0.030040     0.111219   -0.127729   -0.510436
             4    0       1.710486      0.086484      1.902605     0.526084   -0.853324   -0.453696
             5    0       3.639420      1.900363      1.851095     0.367099   -1.363723   -0.365484
             6    0       5.326132      3.643049      1.705760     0.610131   -0.382658    0.864162
             7    0       3.720304      0.000978      3.593179    -0.333960    0.153968    0.170796
             8    0       5.351649      1.931450      3.594802     0.630728   -0.900974    0.179007
             9    0       7.160276      3.577769      3.654766     0.107962    0.272759   -0.559476
            10    0       0.027026      1.864639      1.839492    -0.399990   -0.161780   -0.440054
            11    0       2.037224      3.557032      1.754060    -1.488284    0.265080    0.451769
            12    0       3.538789      5.492048      1.911949     0.798840   -0.350404   -1.044084
            13    0       1.812344      1.728031      3.551918     0.383735    0.845273    1.079963
            14    0       3.690887      3.687382      3.689203    -0.270568   -0.645698   -0.068112
            15    0       5.329622      5.430192      3.620002     0.365698   -0.312304   -0.204088
            16    0       3.636404      1.896073      5.444350    -0.095127   -0.588789   -0.014460
            17    0       5.502434      3.610364      5.473884    -0.272283   -0.121427    0.197885
            18    0       7.309674      5.267571      5.373005    -0.084915    1.194830    0.130635
            19    0      -0.039121      3.527032      3.580933     0.482167    0.263872    0.279383
            20    0       1.932903      5.278333      3.707339    -1.383431   -0.057042   -0.783032
            21    0       3.451541      7.196956      3.622472     1.489290    0.367872   -0.208266
            22    0       1.852417      3.662398      5.509143    -0.643639   -0.820699   -0.328783
            23    0       3.603121      5.361429      5.551223     0.663531    0.281684   -0.003006
            24    0       5.402599      7.070974      5.296113     0.248375    0.765677    0.939096
            25    0       3.507013      3.667040      7.260921     0.587702   -0.389943    0.423050
            26    0       5.521189      5.364066      7.249057     0.041802    0.149379    0.091481
            27    0       7.253104      7.185619      7.257932    -0.933346    0.241875   -0.477470
 Energy
          1.494264313960
 PlusStress:  xx          yy          zz          yz          xz          xy
         1.06190     2.68101     1.99232     0.87619    -0.53898    -0.74393
END_CFG

BEGIN_CFG
 Size
    27
 Supercell
         0.000000      5.415000      5.415000
         5.415000      0.000000      5.415000
         5.415000      5.415000      0.000000
 AtomData:  id type       cartes_x      cartes_y      cartes_z           fx          fy          fz
             1    0       0.016382     -0.094128      0.070585    -0.385207    0.956945   -0.684983
             2    0       1.872443      1.579589     -0.110255    -0.985496    1.239886    1.242950
             3    0       3.642018      3.551435     -0.041391     0.068395   -0.114256   -0.424929
             4    0       1.706169      0.085658      1.909327     0.517567   -0.817426   -0.448813
             5    0       3.648512      1.893515      1.851547     0.308418   -1.315647   -0.363987
             6    0       5.323917      3.641744      1.704890     0.585622   -0.357214    0.844856
             7    0       3.729605      0.003279      3.593563    -0.352387    0.147623    0.164949
             8    0       5.352622      1.934606      3.595006     0.634984   -0.920155    0.210147
             9    0       7.153905      3.578008      3.652167     0.126395    0.260348   -0.524002
            10    0       0.024074      1.871000      1.836984    -0.343539   -0.232638   -0.387120
            11    0       2.045299      3.553350      1.754011    -1.419122    0.250462    0.434109
            12    0       3.541779      5.497537      1.910513     0.732928   -0.375151   -1.015088