BEGIN_CFG
 Size
    27
 Supercell
         0.000000      5.415000      5.415000
         5.415000      0.000000      5.415000
         5.415000      5.415000      0.000000
 AtomData:  id type       cartes_x      cartes_y      cartes_z           fx          fy          fz
             1    0       0.000000      0.000000      0.000000     0.000000    0.000000   -0.000000
             2    0       1.805000      1.805000      0.000000    -0.000000    0.000000    0.000000
             3    0       3.610000      3.610000      0.000000    -0.000000   -0.000000    0.000000
             4    0       1.805000      0.000000      1.805000     0.000000    0.000000    0.000000
             5    0       3.610000      1.805000      1.805000     0.000000    0.000000    0.000000
             6    0       5.415000      3.610000      1.805000     0.000000   -0.000000    0.000000
             7    0       3.610000      0.000000      3.610000    -0.000000    0.000000   -0.000000
             8    0       5.415000      1.805000      3.610000     0.000000    0.000000   -0.000000
             9    0       7.220000      3.610000      3.610000    -0.000000   -0.000000   -0.000000
            10    0       0.000000      1.805000      1.805000     0.000000    0.000000   -0.000000
            11    0       1.805000      3.610000      1.805000     0.000000   -0.000000   -0.000000
            12    0       3.610000      5.415000      1.805000    -0.000000   -0.000000    0.000000
            13    0       1.805000      1.805000      3.610000     0.000000   -0.000000   -0.000000
            14    0       3.610000      3.610000      3.610000     0.000000   -0.000000   -0.000000
            15    0       5.415000      5.415000      3.610000     0.000000   -0.000000    0.000000
            16    0       3.610000      1.805000      5.415000    -0.000000    0.000000    0.000000
            17    0       5.415000      3.610000      5.415000     0.000000    0.000000    0.000000
            18    0       7.220000      5.415000      5.415000    -0.000000    0.000000    0.000000
            19    0       0.000000      3.610000      3.610000     0.000000    0.000000   -0.000000
            20    0       1.805000      5.415000      3.610000    -0.000000    0.000000   -0.000000
            21    0       3.610000      7.220000      3.610000    -0.000000   -0.000000   -0.000000
            22    0       1.805000      3.610000      5.415000     0.000000   -0.000000    0.000000
            23    0       3.610000      5.415000      5.415000     0.000000    0.000000    0.000000
            24    0       5.415000      7.220000      5.415000     0.000000   -0.000000    0.000000
            25    0       3.610000      3.610000      7.220000    -0.000000   -0.000000   -0.000000
            26    0       5.415000      5.415000      7.220000     0.000000    0.000000   -0.000000
            27    0       7.220000      7.220000      7.220000    -0.000000   -0.000000   -0.000000
 Energy
         -0.153358456403
 PlusStress:  xx          yy          zz          yz          xz          xy
        -4.28860    -4.28860    -4.28860     0.00000    -0.00000    -0.00000
END_CFG

BEGIN_CFG
 Size
    27
 Supercell
         0.000000      5.415000      5.415000
         5.415000      0.000000      5.415000
         5.415000      5.415000      0.000000
 AtomData:  id type       cartes_x      cartes_y      cartes_z           fx          fy          fz
             1    0       0.005511     -0.018809      0.013573    -0.092868    0.184687   -0.118967
             2    0       1.822011      1.769714     -0.023551    -0.185335    0.209745    0.215186
             3    0       3.612312      3.604280     -0.000304     0.023779   -0.006318   -0.072423
             4    0       1.789572      0.015905      1.819067     0.098465   -0.116327   -0.019646
             5    0       3.611194      1.825387      1.813455     0.058117   -0.209492   -0.080708
             6    0       5.399459      3.616669      1.787658     0.129269   -0.066531    0.109805
             7    0       3.625888     -0.000903      3.606657    -0.059507    0.026436    0.036035
             8    0       5.402685      1.827111      3.607205     0.134248   -0.197837    0.027601
             9    0       7.212253      3.603631      3.619627    -0.000502    0.076222   -0.112694
            10    0       0.006609      1.812465      1.812792    -0.086280    0.009289   -0.097043
            11    0       1.843734      3.602650      1.795736    -0.246906   -0.007352    0.072244
            12    0       3.595282      5.426141      1.825419     0.153628   -0.026995   -0.189720
            13    0       1.802939      1.789805      3.595088     0.087949    0.151840    0.207294
            14    0       3.621767      3.623443      3.619823    -0.053821   -0.097202    0.009085
            15    0       5.402964      5.419199      3.612110     0.027428   -0.060232   -0.010540
            16    0       3.613955      1.820761      5.419044    -0.020222   -0.135263   -0.015518
            17    0       5.427279      3.611222      5.420229    -0.023567   -0.037308    0.066792
            18    0       7.231417      5.388646      5.409218    -0.000236    0.216495    0.009804
            19    0      -0.008507      3.598445      3.605024     0.120238    0.026615    0.025149
            20    0       1.832038      5.399341      3.627512    -0.320087   -0.013046   -0.133561
            21    0       3.579564      7.213943      3.612944     0.258364    0.074694   -0.028117
            22    0       1.815602      3.622863      5.429348    -0.133617   -0.188648   -0.085943
            23    0       3.603693      5.406638      5.430517     0.136591    0.045030    0.048736
            24    0       5.411540      7.196928      5.394503     0.070164    0.115697    0.150794
            25    0       3.593371      3.618992      7.222576     0.100812   -0.044605    0.055530
            26    0       5.427488      5.407273      7.222867     0.026861    0.044734    0.027866
            27    0       7.231314      7.214405      7.228261    -0.202966    0.025672   -0.097040
 Energy
         -0.096684949843
 PlusStress:  xx          yy          zz          yz          xz          xy
        -4.07867    -4.04562    -4.06531     0.03188    -0.01887    -0.02987
END_CFG

BEGIN_CFG
 Size
    27
 Supercell
         0.000000      5.415000      5.415000
         5.415000      0.000000      5.415000
         5.415000      5.415000      0.000000
 AtomData:  id type       cartes_x      cartes_y      cartes_z           fx          fy          fz
             1    0       0.010670     -0.036919      0.026694    -0.177270    0.365156   -0.239724
             2    0       1.838319      1.735223     -0.046286    -0.388355    0.427531    0.452722
             3    0       3.614714      3.598537     -0.000882     0.052416   -0.021047   -0.163681
             4    0       1.774518      0.031368      1.833060     0.195861   -0.247690   -0.060679
             5    0       3.612608      1.844980      1.821605     0.122167   -0.430132   -0.155513
             6    0       5.384409      3.623086      1.770731     0.249591   -0.133126    0.236175
             7    0       3.641549     -0.001705      3.603450    -0.115558    0.054272    0.069965
             8    0       5.390878      1.848471      3.604515     0.252220   -0.366195    0.049710
             9    0       7.204505      3.597552      3.628827     0.004292    0.142428   -0.222151
            10    0       0.012891      1.819966      1.820215    -0.175823    0.013862   -0.192971
            11    0       1.881531      3.595271      1.786744    -0.503186    0.003295    0.148945
            12    0       3.581147      5.437179      1.845118     0.312607   -0.061721   -0.379069
            13    0       1.801212      1.775186      3.580964     0.169791    0.298463    0.412225
            14    0       3.633329      3.636516      3.629682    -0.097863   -0.194971    0.014182
            15    0       5.391031      5.423169      3.614181     0.058352   -0.122369   -0.029798
            16    0       3.617834      1.836008      5.423029    -0.038133   -0.255471   -0.027171
            17    0       5.439468      3.612303      5.425712    -0.057159   -0.070311    0.127720
            18    0       7.242834      5.363113      5.403474    -0.004094    0.428554    0.021557
            19    0      -0.016558      3.586991      3.600143     0.219322    0.054829    0.058542
            20    0       1.857859      5.383632      3.644518    -0.624715   -0.056263   -0.276286
            21    0       3.550108      7.208171      3.615780     0.544484    0.161809   -0.061936
            22    0       1.825698      3.635011      5.443371    -0.259949   -0.361476   -0.156291
            23    0       3.597904      5.398446      5.446220     0.287749    0.088777    0.097499
            24    0       5.408347      7.174294      5.374578     0.121715    0.230459    0.297839
            25    0       3.577124      3.627814      7.225362     0.200833   -0.090023    0.121474
            26    0       5.440079      5.399716      7.225841     0.050586    0.083189    0.048904
            27    0       7.241859      7.208907      7.236155    -0.399881    0.058171   -0.192188
 Energy
          0.067976762602
 PlusStress:  xx          yy          zz          yz          xz          xy
        -3.47959    -3.34367    -3.41714     0.12426    -0.07357    -0.11512
END_CFG

BEGIN_CFG
 Size
    27
 Supercell
         0.000000      5.415000      5.415000
         5.415000      0.000000      5.415000
         5.415000      5.415000      0.000000
 AtomData:  id type       cartes_x      cartes_y      cartes_z           fx          fy          fz
             1    0       0.015156     -0.053646      0.038904    -0.249734    0.537415   -0.359687
             2    0       1.853156      1.702357     -0.067301    -0.601826    0.645927    0.704980
             3    0       3.617315      3.592714     -0.002080     0.083374   -0.042110   -0.266801
             4    0       1.760212      0.045892      1.846824     0.287671   -0.389069   -0.123088
             5    0       3.614484      1.862941      1.829163     0.191436   -0.655335   -0.220436
             6    0       5.370307      3.629000      1.754700     0.357601   -0.199229    0.374286
             7    0       3.656773     -0.002302      3.600510    -0.167022    0.081575    0.100496
             8    0       5.380028      1.868439      3.602012     0.354855   -0.508238    0.068327
             9    0       7.196775      3.592013      3.637184     0.014130    0.196246   -0.324145
            10    0       0.018503      1.827523      1.826904    -0.262332    0.011854   -0.282334
            11    0       1.917418      3.587904      1.778316    -0.759825    0.034012    0.227077
            12    0       3.568197      5.447984      1.863378     0.467506   -0.105085   -0.560627
            13    0       1.800130      1.761698      3.568404     0.242929    0.438720    0.608812
            14    0       3.644522      3.648850      3.639594    -0.133082   -0.291513    0.014247
            15    0       5.379318      5.426674      3.616139     0.093993   -0.183362   -0.057556
            16    0       3.621568      1.850286      5.426911    -0.053355   -0.357900   -0.034582
            17    0       5.451440      3.613116      5.431682    -0.098446   -0.097946    0.179453
            18    0       7.254236      5.339205      5.397813    -0.011524    0.629276    0.036105
            19    0      -0.023778      3.575746      3.595485     0.297705    0.085004    0.097908
            20    0       1.881306      5.367711      3.660474    -0.902139   -0.117774   -0.421133
            21    0       3.522719      7.203016      3.618381     0.841514    0.254477   -0.102643
            22    0       1.834808      3.645786      5.456800    -0.376114   -0.514350   -0.212410
            23    0       3.593208      5.390589      5.462293     0.441488    0.130319    0.139860
            24    0       5.405616      7.152534      5.355781     0.157819    0.343284    0.439128
            25    0       3.561638      3.636294      7.228609     0.296802   -0.136907    0.193859
            26    0       5.452861      5.392475      7.229000     0.069234    0.114228    0.063642
            27    0       7.250888      7.203629      7.243319    -0.582658    0.096481   -0.282739
 Energy
          0.321309602184
 PlusStress:  xx          yy          zz          yz          xz          xy
        -2.58023    -2.27079    -2.42459     0.26538    -0.15872    -0.24567
END_CFG

BEGIN_CFG
 Size
    27
 Supercell
         0.000000      5.415000      5.415000
         5.415000      0.000000      5.415000
         5.415000      5.415000      0.000000
 AtomData:  id type       cartes_x      cartes_y      cartes_z           fx          fy          fz
             1    0       0.018694     -0.068340      0.049747    -0.307925    0.695607   -0.473873
             2    0       1.865711      1.671948     -0.085636    -0.810312    0.852820    0.954560
             3    0       3.620229      3.586732     -0.004290     0.112624   -0.066707   -0.370881
             4    0       1.747003      0.058941      1.860123     0.369145   -0.531869   -0.202135
             5    0       3.617083      1.878414      1.835884     0.262015   -0.874535   -0.272963
             6    0       5.357564      3.634162      1.740086     0.450141   -0.262673    0.515808
             7    0       3.671364     -0.002590      3.597951    -0.213016    0.106507    0.126538
             8    0       5.370521      1.886476      3.599767     0.442531   -0.626864    0.085663
             9    0       7.189104      3.587219      3.644312     0.028219    0.236363   -0.414166
            10    0       0.023116      1.835131      1.832518    -0.338166    0.001010   -0.359223
            11    0       1.950420      3.580664      1.770746    -1.003538    0.083005    0.301736
            12    0       3.557019      5.458391      1.879512     0.606930   -0.155900   -0.725448
            13    0       1.799970      1.749874      3.558155     0.304531    0.569255    0.788059
            14    0       3.655210      3.660078      3.649561    -0.161689   -0.384265    0.008566
            15    0       5.367960      5.429482      3.617880     0.135558   -0.239193   -0.092069
            16    0       3.625101      1.863206      5.430662    -0.065901   -0.441380   -0.037639
            17    0       5.463039      3.613554      5.438337    -0.143597   -0.119197    0.218719
            18    0       7.265595      5.317684      5.392289    -0.022112    0.811043    0.053653
            19    0      -0.029868      3.564825      3.591199     0.357603    0.117511    0.140512
            20    0       1.901321      5.351346      3.674832    -1.136665   -0.180326   -0.557908
            21    0       3.498523      7.198831      3.620591     1.123249    0.341544   -0.147860
            22    0       1.842490      3.654610      5.469424    -0.477893   -0.642564   -0.255996
            23    0       3.590187      5.383224      5.478897     0.580996    0.169320    0.167734
            24    0       5.403486      7.132074      5.338649     0.182508    0.452085    0.572279
            25    0       3.547277      3.644252      7.232592     0.384985   -0.185814    0.267069
            26    0       5.465908      5.385668      7.232402     0.081341    0.137329    0.073375
            27    0       7.257710      7.198714      7.249412    -0.741565    0.137888   -0.364111
 Energy
          0.629262251596
 PlusStress:  xx          yy          zz          yz          xz          xy
        -1.52188    -0.97549    -1.22752     0.43503    -0.26400    -0.40371
END_CFG

BEGIN_CFG
 Size
    27
 Supercell
         0.000000      5.415000      5.415000
         5.415000      0.000000      5.415000
         5.415000      5.415000      0.000000
 AtomData:  id type       cartes_x      cartes_y      cartes_z           fx          fy          fz
             1    0       0.021061     -0.080402      0.058783    -0.350695    0.831581   -0.574997
             2    0       1.875196      1.644788     -0.100340    -0.990623    1.032410    1.174403
             3    0       3.623566      3.580496     -0.007905     0.135066   -0.090967   -0.461374
             4    0       1.735205      0.069971      1.872658     0.435783   -0.663821   -0.288173
             5    0       3.620672      1.890565      1.841566     0.325996   -1.072677   -0.312276
             6    0       5.346534      3.638332      1.727427     0.524079   -0.318996    0.648999
             7    0       3.685150     -0.002474      3.595872    -0.252953    0.127477    0.147222
             8    0       5.362687      1.902129      3.597848     0.515107   -0.724472    0.104044
             9    0       7.181546      3.583322      3.649869     0.045472    0.262649   -0.487383
            10    0       0.026442      1.842752      1.836762    -0.395168   -0.021035   -0.417793
            11    0       1.979610      3.573735      1.764318    -1.217052    0.143199    0.366815
            12    0       3.548140      5.468207      1.892892     0.718887   -0.211224   -0.864283
            13    0       1.800966      1.740209      3.550900     0.351662    0.684087    0.937993
            14    0       3.665288      3.669849      3.659561    -0.186879   -0.470035   -0.003026
            15    0       5.357114      5.431382      3.619274     0.183973   -0.284950   -0.129803
            16    0       3.628385      1.874453      5.434271    -0.076028   -0.505805   -0.036586
            17    0       5.474094      3.613537      5.445828    -0.187845   -0.133121    0.242365
            18    0       7.276871      5.299242      5.386970    -0.035270    0.965738    0.073476
            19    0      -0.034599      3.554356      3.587446     0.402438    0.152385    0.183007
            20    0       1.917014      5.334301      3.687069    -1.311584   -0.222548   -0.673676
            21    0       3.478587      7.195948      3.622238     1.356754    0.408645   -0.190482
            22    0       1.848358      3.660993      5.481075    -0.560260   -0.741499   -0.288643
            23    0       3.589368      5.376497      5.496134     0.686977    0.205655    0.172497
            24    0       5.402053      7.113326      5.323685     0.200316    0.553864    0.693737
            25    0       3.534374      3.651503      7.237588     0.461445   -0.236813    0.334127
            26    0       5.479264      5.379382      7.236086     0.085877    0.152236    0.079760
            27    0       7.261723      7.194318      7.254126    -0.865477    0.178038   -0.429951
 Energy
          0.946069625054
 PlusStress:  xx          yy          zz          yz          xz          xy
        -0.47620     0.35475    -0.00701     0.60934    -0.37506    -0.56183
END_CFG

BEGIN_CFG
 Size
    27
 Supercell
         0.000000      5.415000      5.415000
         5.415000      0.000000      5.415000
         5.415000      5.415000      0.000000
 AtomData:  id type       cartes_x      cartes_y      cartes_z           fx          fy          fz
             1    0       0.022094     -0.089318      0.065626    -0.378126    0.934925   -0.653886
             2    0       1.880929      1.621563     -0.110578    -1.115224    1.167734    1.331765
             3    0       3.627408      3.573912     -0.013272     0.145366   -0.111482   -0.523117
             4    0       1.725075      0.078482      1.884104     0.484152   -0.770193   -0.367921
             5    0       3.625493      1.898640      1.846058     0.372477   -1.231648   -0.339233
             6    0       5.337500      3.641300      1.717228     0.576692   -0.362148    0.760167
             7    0       3.697982     -0.001877      3.594351    -0.286734    0.143113    0.161841
             8    0       5.356798      1.915027      3.596324     0.572006   -0.802357    0.125142
             9    0       7.174172      3.580421      3.653577     0.064596    0.276197   -0.538944
            10    0       0.028263      1.850307      1.839411    -0.426422   -0.056169   -0.452495
            11    0       2.004176      3.567345      1.759281    -1.380496    0.203175    0.416426
            12    0       3.541985      5.477221      1.902993     0.792600   -0.265684   -0.967739
            13    0       1.803297      1.733141      3.547209     0.381513    0.774324    1.044461
            14    0       3.674658      3.677837      3.669549    -0.211923   -0.544918   -0.020087
            15    0       5.346965      5.432197      3.620177     0.239411   -0.315212   -0.165406
            16    0       3.631384      1.883783      5.437742    -0.084201   -0.551477   -0.031938
            17    0       5.484436      3.613008      5.454248    -0.226448   -0.138476    0.247564
            18    0       7.288016      5.284465      5.381932    -0.050584    1.085202    0.093963
            19    0      -0.037799      3.544473      3.584388     0.435879    0.188952    0.222208
            20    0       1.927716      5.316417      3.696745    -1.413228   -0.223481   -0.755120
            21    0       3.463794      7.194621      3.623160     1.509094    0.441111   -0.219962
            22    0       1.852096      3.664558      5.491630    -0.617691   -0.806185   -0.311302
            23    0       3.591151      5.370543      5.514021     0.741911    0.238640    0.147103
            24    0       5.401389      7.096676      5.311354     0.215321    0.643967    0.798940
            25    0       3.523219      3.657850      7.243854     0.522511   -0.289048    0.387230
            26    0       5.492947      5.373674      7.240078     0.081568    0.159086    0.084182
            27    0       7.262458      7.190592      7.257211    -0.944018    0.212051   -0.473843
 Energy
          1.221617346219
 PlusStress:  xx          yy          zz          yz          xz          xy
         0.38449     1.51322     1.03623     0.75688    -0.47002    -0.68980
END_CFG

BEGIN_CFG
 Size
    27
 Supercell
         0.000000      5.415000      5.415000
         5.415000      0.000000      5.415000
         5.415000      5.415000      0.000000
 AtomData:  id type       cartes_x      cartes_y      cartes_z           fx          fy          fz
             1    0       0.021686     -0.094697      0.069971    -0.391659    0.995432   -0.701432
             2    0       1.882439      1.602790     -0.115751    -1.160746    1.246794    1.399316
             3    0       3.631793      3.566901     -0.020626     0.139139   -0.124412   -0.542334
             4    0       1.716799      0.084071      1.894161     0.512559   -0.836701   -0.427590
             5    0       3.631721      1.902034      1.849256     0.389788   -1.332996   -0.355630
             6    0       5.330663      3.642902      1.709911     0.605405   -0.385810    0.835662
             7    0       3.709735     -0.000738      3.593443    -0.314667    0.152267    0.169862
             8    0       5.353069      1.924874      3.595278     0.612372   -0.861024    0.149905
             9    0       7.167056      3.578566      3.655242     0.084547    0.278915   -0.564236
            10    0       0.028459      1.857664      1.840330    -0.427668   -0.105037   -0.459168
            11    0       2.023500      3.561720      1.755824    -1.475355    0.248729    0.445457
            12    0       3.538832      5.485229      1.909422     0.820527   -0.313758   -1.028930
            13    0       1.807076      1.729011      3.547485     0.392307    0.830591    1.094413
            14    0       3.683226      3.683757      3.679457    -0.239589   -0.604774   -0.041672
            15    0       5.337723      5.431813      3.620454     0.300781   -0.325011   -0.192400
            16    0       3.634065      1.891025      5.441092    -0.090654   -0.579559   -0.024372
            17    0       5.493919      3.611945      5.463620    -0.255467   -0.134049    0.232103
            18    0       7.298971      5.273809      5.377252    -0.067563    1.162844    0.113445
            19    0      -0.039338      3.535317      3.582175     0.461079    0.225719    0.254917
            20    0       1.933041      5.297692      3.703549    -1.434969   -0.169242   -0.792085
            21    0       3.454720      7.194973      3.623247     1.556593    0.428177   -0.226840
            22    0       1.853485      3.665060      5.501003    -0.645557   -0.832728   -0.324518
            23    0       3.595745      5.365486      5.532458     0.734899    0.266188    0.088561
            24    0       5.401551      7.082467      5.302057     0.229971    0.716917    0.882218
            25    0       3.514045      3.663094      7.251591     0.565352   -0.340551    0.418729
            26    0       5.506940      5.368570      7.244397     0.067211    0.157975    0.087348
            27    0       7.259616      7.187664      7.258501    -0.968636    0.235105   -0.490730
 Energy
          1.412604471054
 PlusStress:  xx          yy          zz          yz          xz          xy
         0.92318     2.32889     1.73489     0.85353    -0.53128    -0.75718
END_CFG

BEGIN_CFG
 Size
    27
 Supercell
         0.000000      5.415000      5.415000
         5.415000      0.000000      5.415000
         5.415000      5.415000      0.000000
 AtomData:  id type       cartes_x      cartes_y      cartes_z           fx          fy          fz
             1    0       0.019784     -0.096313      0.071636    -0.392823    1.005158   -0.711032
             2    0       1.879555      1.588773     -0.115601    -1.116310    1.266511    1.365388
             3    0       3.636694      3.559410     -0.030040     0.114193   -0.125905   -0.510100
             4    0       1.710486      0.086484      1.902605     0.521421   -0.853280   -0.456849
             5    0       3.639420      1.900363      1.851095     0.369594   -1.362628   -0.363005
             6    0       5.326132      3.643049      1.705760     0.608289   -0.385288    0.865589
             7    0       3.720304      0.000978      3.593179    -0.337372    0.154032    0.170923
             8    0       5.351649      1.931450      3.594802     0.635282   -0.900372    0.178384
             9    0       7.160276      3.577769      3.654766     0.104319    0.272964   -0.559832
            10    0       0.027026      1.864639      1.839492    -0.398214   -0.166422   -0.435934
            11    0       2.037224      3.557032      1.754060    -1.489509    0.267381    0.451091
            12    0       3.538789      5.492048      1.911949     0.799927   -0.351162   -1.044563
            13    0       1.812344      1.728031      3.551918     0.383913    0.845898    1.079719
            14    0       3.690887      3.687382      3.689203    -0.271404   -0.645656   -0.066508
            15    0       5.329622      5.430192      3.620002     0.365362   -0.310960   -0.204298
            16    0       3.636404      1.896073      5.444350    -0.095697   -0.590910   -0.014643
            17    0       5.502434      3.610364      5.473884    -0.272606   -0.118813    0.194729
            18    0       7.309674      5.267571      5.373005    -0.086019    1.193926    0.130051
            19    0      -0.039121      3.527032      3.580933     0.480097    0.260389    0.278178
            20    0       1.932903      5.278333      3.707339    -1.378920   -0.058504   -0.780815
            21    0       3.451541      7.196956      3.622472     1.492619    0.366441   -0.207603
            22    0       1.852417      3.662398      5.509143    -0.641548   -0.819453   -0.328946
            23    0       3.603121      5.361429      5.551223     0.665102    0.284509   -0.000681
            24    0       5.402599      7.070974      5.296113     0.245102    0.767247    0.937637
            25    0       3.507013      3.667040      7.260921     0.588628   -0.388256    0.422235
            26    0       5.521189      5.364066      7.249057     0.041411    0.149039    0.089069
            27    0       7.253104      7.185619      7.257932    -0.934835    0.244114   -0.478185
 Energy
          1.493936536907
 PlusStress:  xx          yy          zz          yz          xz          xy
         1.06825     2.70180     1.99589     0.88236    -0.54838    -0.73921
END_CFG

BEGIN_CFG
 Size
    27
 Supercell
         0.000000      5.415000      5.415000
         5.415000      0.000000      5.415000
         5.415000      5.415000      0.000000
 AtomData:  id type       cartes_x      cartes_y      cartes_z           fx          fy          fz
             1    0       0.016382     -0.094128      0.070585    -0.382688    0.960975   -0.680537
             2    0       1.872443      1.579589     -0.110255    -0.987417    1.233617    1.238885
             3    0       3.642018      3.551435     -0.041391     0.071139   -0.112632   -0.424775
             4    0       1.706169      0.085658      1.909327     0.513108   -0.817234   -0.452246
             5    0       3.648512      1.893515      1.851547     0.310540   -1.314869   -0.361465
             6    0       5.323917      3.641744      1.704890     0.584385   -0.359544    0.846264
             7    0       3.729605      0.003279      3.593563    -0.355853    0.147505    0.164814
             8    0       5.352622      1.934606      3.595006     0.639857   -0.919880    0.209560
             9    0       7.153905      3.578008      3.652167     0.123303    0.260311   -0.524194
            10    0       0.024074      1.871000      1.836984    -0.341535   -0.237006   -0.383053
            11    0       2.045299      3.553350      1.754011    -1.421403    0.252654    0.433456
            12    0       3.541779      5.497537      1.910513     0.733593   -0.376093   -1.015279