BEGIN_CFG
 Size
    27
 Supercell
         0.000000      5.415000      5.415000
         5.415000      0.000000      5.415000
         5.415000      5.415000      0.000000
 AtomData:  id type       cartes_x      cartes_y      cartes_z           fx          fy          fz
             1    0       0.000000      0.000000      0.000000    -1.242010   -0.021613   -1.242010
             2    1       1.805000      1.805000      0.000000     0.585623   -0.672510    0.065228
             3    2       3.610000      3.610000      0.000000     0.319547    0.351730    0.066151
             4    2       1.805000      0.000000      1.805000     0.255663   -0.000000    0.255663
             5    0       3.610000      1.805000      1.805000     0.268373   -0.601729   -0.865428
             6    1       5.415000      3.610000      1.805000    -0.021658    0.000000   -0.021658
             7    2       3.610000      0.000000      3.610000     0.351730    0.016984    0.351730
             8    2       5.415000      1.805000      3.610000     0.000000   -0.654294   -0.046901
             9    0       7.220000      3.610000      3.610000    -0.259024    0.865428   -0.618668
            10    1       0.000000      1.805000      1.805000     0.065228   -0.672510    0.585623
            11    2       1.805000      3.610000      1.805000     0.319547    0.703461    0.319547
            12    2       3.610000      5.415000      1.805000    -0.656560   -0.049167    0.000000
            13    0       1.805000      1.805000      3.610000    -0.865428   -0.601729    0.268373
            14    1       3.610000      3.610000      3.610000    -0.021658    1.323361   -0.021658
            15    2       5.415000      5.415000      3.610000    -0.351730    0.302563   -0.032183
            16    2       3.610000      1.805000      5.415000    -0.046901   -0.654294    0.000000
            17    0       5.415000      3.610000      5.415000    -0.618668    0.021613   -0.618668
            18    1       7.220000      5.415000      5.415000     1.236475    0.672510    0.759396
            19    2       0.000000      3.610000      3.610000     0.066151    0.351730    0.319547
            20    2       1.805000      5.415000      3.610000     0.000000   -0.049167   -0.656560
            21    0       3.610000      7.220000      3.610000     0.865428   -1.769407    0.865428
            22    1       1.805000      3.610000      5.415000    -0.021658    0.000000   -0.021658
            23    2       3.610000      5.415000      5.415000    -0.032183    0.302563   -0.351730
            24    2       5.415000      7.220000      5.415000    -0.255663    0.000000   -0.255663
            25    0       3.610000      3.610000      7.220000    -0.618668    0.865428   -0.259024
            26    1       5.415000      5.415000      7.220000     0.759396    0.672510    1.236475
            27    2       7.220000      7.220000      7.220000    -0.081351   -0.703461   -0.081351
 Energy
          7.361196677242
 PlusStress:  xx          yy          zz          yz          xz          xy
        78.17395    73.98145    78.17395    -0.42339    -4.69439    -0.42339
END_CFG

BEGIN_CFG
 Size
    27
 Supercell
         0.000000      5.415000      5.415000
         5.415000      0.000000      5.415000
         5.415000      5.415000      0.000000
 AtomData:  id type       cartes_x      cartes_y      cartes_z           fx          fy          fz
             1    0       0.002399     -0.010685      0.006978    -1.405876    0.311599   -1.393962
             2    1       1.818698      1.777096     -0.017959     0.140645   -0.333332    0.453161
             3    2       3.612946      3.604940     -0.000163     0.320178    0.328336   -0.033644
             4    2       1.789998      0.015981      1.819493     0.392672   -0.227800    0.214070
             5    0       3.610830      1.816221      1.809274     0.388727   -0.908964   -0.968809
             6    1       5.403032      3.615147      1.791623     0.212584   -0.127216    0.180934
             7    2       3.626591     -0.000818      3.607360     0.224721    0.049727    0.394137
             8    2       5.402661      1.825818      3.607142     0.170614   -0.936003    0.015351
             9    0       7.215437      3.606907      3.615087    -0.312880    0.941972   -0.856322
            10    1       0.005191      1.809909      1.811622    -0.066982   -0.592415    0.333872
            11    2       1.844346      3.603925      1.796348    -0.063348    0.702246    0.325836
            12    2       3.594087      5.426060      1.825400    -0.433457   -0.088900   -0.259476
            13    0       1.803301      1.796010      3.601682    -0.646543   -0.329036    0.685806
            14    1       3.618987      3.621778      3.617496    -0.152411    1.087275   -0.004922
            15    2       5.402279      5.419833      3.611994    -0.253858    0.214287   -0.026910
            16    2       3.613892      1.819467      5.419020    -0.095016   -0.853218   -0.035689
            17    0       5.421595      3.610691      5.417591    -0.581042   -0.110123   -0.393992
            18    1       7.230169      5.395573      5.411422     1.268856    1.050675    0.767671
            19    2      -0.008366      3.599105      3.605658     0.230268    0.414940    0.406897
            20    2       1.832019      5.399260      3.626317    -0.417163   -0.040177   -0.852910
            21    0       3.593255      7.215448      3.612215     1.250489   -1.635650    0.682256
            22    1       1.813072      3.619901      5.425973    -0.243915   -0.370502   -0.223193
            23    2       3.603577      5.407272      5.429832     0.157077    0.380884   -0.318628
            24    2       5.411040      7.196936      5.394003    -0.153859    0.164082   -0.015565
            25    0       3.600173      3.615632      7.221300    -0.409891    0.811304   -0.131910
            26    1       5.425445      5.409869      7.223607     0.809072    0.741566    1.282467
            27    2       7.231133      7.213051      7.228079    -0.329663   -0.645559   -0.226525
 Energy
          7.421723230058
 PlusStress:  xx          yy          zz          yz          xz          xy
        78.36520    74.10217    78.42837    -0.52007    -4.58434    -0.38045
END_CFG

BEGIN_CFG
 Size
    27
 Supercell
         0.000000      5.415000      5.415000
         5.415000      0.000000      5.415000
         5.415000      5.415000      0.000000
 AtomData:  id type       cartes_x      cartes_y      cartes_z           fx          fy          fz
             1    0       0.003141     -0.020974      0.012311    -1.509717    0.636767   -1.508636
             2    1       1.832667      1.748311     -0.034807    -0.331750    0.042623    0.844401
             3    2       3.617167      3.601132     -0.000407     0.300463    0.271216   -0.158481
             4    2       1.776358      0.031257      1.834681     0.512628   -0.467450    0.133281
             5    0       3.612106      1.826347      1.812368     0.495173   -1.200846   -1.026602
             6    1       5.391508      3.620078      1.778566     0.426577   -0.246227    0.403327
             7    2       3.644103     -0.001343      3.606298     0.082085    0.081586    0.410470
             8    2       5.390914      1.842989      3.604395     0.322460   -1.133114    0.077065
             9    0       7.210470      3.604968      3.619115    -0.341599    0.966556   -1.044834
            10    1       0.010340      1.813349      1.818960    -0.221276   -0.482835    0.061676
            11    2       1.883476      3.600399      1.788942    -0.461634    0.674810    0.325813
            12    2       3.576621      5.436784      1.844772    -0.170279   -0.135809   -0.514642
            13    0       1.800816      1.786635      3.594177    -0.399756   -0.046167    1.073501
            14    1       3.627590      3.635947      3.624943    -0.257279    0.782110   -0.001012
            15    2       5.388571      5.425584      3.613781    -0.125654    0.104586   -0.022558
            16    2       3.617469      1.830599      5.422847    -0.130590   -0.984912   -0.067598
            17    0       5.427477      3.611215      5.419698    -0.529145   -0.212119   -0.152894
            18    1       7.243226      5.378605      5.409580     1.224856    1.364772    0.748349
            19    2      -0.015810      3.589777      3.602921     0.358505    0.451204    0.472879
            20    2       1.857422      5.383374      3.639515    -0.817280   -0.042170   -1.010365
            21    0       3.578073      7.208821      3.615303     1.616176   -1.413394    0.462272
            22    1       1.820510      3.629030      5.436407    -0.452170   -0.705229   -0.398131
            23    2       3.597629      5.401091      5.443423     0.369164    0.430325   -0.258074
            24    2       5.406481      7.174507      5.372914    -0.059547    0.313654    0.231444
            25    0       3.589841      3.622259      7.222416    -0.169734    0.723701    0.017971
            26    1       5.437722      5.406491      7.230129     0.815874    0.755356    1.249321
            27    2       7.240950      7.203612      7.235231    -0.546550   -0.528994   -0.347941
 Energy
          7.572317271339
 PlusStress:  xx          yy          zz          yz          xz          xy
        78.87095    74.47525    79.00428    -0.55641    -4.45190    -0.42704
END_CFG

BEGIN_CFG
 Size
    27
 Supercell
         0.000000      5.415000      5.415000
         5.415000      0.000000      5.415000
         5.415000      5.415000      0.000000
 AtomData:  id type       cartes_x      cartes_y      cartes_z           fx          fy          fz
             1    0       0.002104     -0.030474      0.015859    -1.549722    0.938103   -1.580690
             2    1       1.845833      1.719491     -0.049660    -0.800436    0.432910    1.212877
             3    2       3.622587      3.598377     -0.001193     0.259742    0.184274   -0.296878
             4    2       1.764528      0.044921      1.850258     0.609949   -0.705186    0.014724
             5    0       3.613953      1.835021      1.814213     0.579700   -1.465604   -1.038509
             6    1       5.380906      3.624537      1.766328     0.611164   -0.351444    0.635016
             7    2       3.661987     -0.001459      3.606881    -0.071271    0.109472    0.398528
             8    2       5.380332      1.855778      3.601993     0.450562   -1.245756    0.136444
             9    0       7.205053      3.604223      3.621852    -0.344357    0.938697   -1.172636
            10    1       0.015120      1.815566      1.826404    -0.388037   -0.356439   -0.205742
            11    2       1.920887      3.599324      1.782781    -0.850419    0.623544    0.325757
            12    2       3.558589      5.446968      1.862140     0.123147   -0.189474   -0.753960
            13    0       1.797848      1.777221      3.587957    -0.139801    0.236308    1.413847
            14    1       3.635578      3.651831      3.632356    -0.324537    0.417915   -0.010108
            15    2       5.374375      5.431816      3.615383     0.027993   -0.018365   -0.024661
            16    2       3.620590      1.837904      5.426354    -0.153120   -1.046367   -0.093095
            17    0       5.432710      3.611445      5.421616    -0.466621   -0.273511    0.087887
            18    1       7.259071      5.364806      5.409429     1.106538    1.599242    0.700753
            19    2      -0.021833      3.582159      3.602043     0.449338    0.459208    0.511240
            20    2       1.879692      5.367314      3.649011    -1.190390   -0.039975   -1.116498
            21    0       3.564911      7.200382      3.619003     1.935213   -1.119775    0.220108
            22    1       1.826848      3.636638      5.445901    -0.636555   -0.985835   -0.545493
            23    2       3.592950      5.396623      5.456005     0.584035    0.446577   -0.183836
            24    2       5.401696      7.153276      5.352668     0.027312    0.447945    0.478640
            25    0       3.579301      3.629785      7.223519     0.090095    0.607432    0.178745
            26    1       5.451848      5.404887      7.239487     0.778636    0.713354    1.146132
            27    2       7.248620      7.192124      7.240980    -0.718157   -0.357250   -0.438591
 Energy
          7.788503328816
 PlusStress:  xx          yy          zz          yz          xz          xy
        79.60705    75.02457    79.81148    -0.54408    -4.29999    -0.54303
END_CFG

BEGIN_CFG
 Size
    27
 Supercell
         0.000000      5.415000      5.415000
         5.415000      0.000000      5.415000
         5.415000      5.415000      0.000000
 AtomData:  id type       cartes_x      cartes_y      cartes_z           fx          fy          fz
             1    0      -0.000758     -0.038823      0.017535    -1.527060    1.198706   -1.603238
             2    1       1.857131      1.691515     -0.061685    -1.229406    0.811427    1.527115
             3    2       3.629052      3.596362     -0.003039     0.198343    0.073872   -0.432565
             4    2       1.754877      0.056071      1.865780     0.679150   -0.921949   -0.132883
             5    0       3.616473      1.841918      1.814796     0.633858   -1.689027   -1.007452
             6    1       5.371641      3.628294      1.755433     0.759387   -0.437402    0.859909
             7    2       3.679654     -0.001068      3.609068    -0.230641    0.130176    0.356338
             8    2       5.371398      1.863774      3.600163     0.549608   -1.275469    0.192804
             9    0       7.199172      3.604647      3.623140    -0.322870    0.863725   -1.231440
            10    1       0.019165      1.816848      1.833353    -0.550591   -0.227333   -0.444331
            11    2       1.955109      3.600517      1.777860    -1.202987    0.547032    0.327865
            12    2       3.541090      5.456377      1.876588     0.432626   -0.247110   -0.962065
            13    0       1.794716      1.768110      3.583438     0.116772    0.506872    1.689115
            14    1       3.642803      3.668624      3.639720    -0.351842    0.012419   -0.030838
            15    2       5.360285      5.438034      3.616799     0.201044   -0.144483   -0.036748
            16    2       3.623168      1.841164      5.429440    -0.162412   -1.037533   -0.110082
            17    0       5.437369      3.611311      5.423637    -0.395407   -0.290946    0.312715
            18    1       7.277435      5.354697      5.410860     0.920129    1.742109    0.623315
            19    2      -0.026079      3.576290      3.603169     0.505278    0.439158    0.517074
            20    2       1.897422      5.351067      3.654412    -1.516683   -0.019406   -1.158165
            21    0       3.554167      7.190489      3.623022     2.175564   -0.780956   -0.023945
            22    1       1.831674      3.642097      5.454123    -0.786214   -1.198553   -0.666012
            23    2       3.590346      5.393906      5.467862     0.775969    0.428279   -0.112280
            24    2       5.397026      7.133751      5.334207     0.109266    0.567168    0.718132
            25    0       3.568876      3.638078      7.224797     0.356625    0.468438    0.336620
            26    1       5.467736      5.404952      7.251447     0.695417    0.617672    0.984547
            27    2       7.253482      7.179245      7.244972    -0.832921   -0.136885   -0.493503
 Energy
          8.033119941230
 PlusStress:  xx          yy          zz          yz          xz          xy
        80.44856    75.62928    80.72036    -0.50442    -4.12316    -0.68391
END_CFG

BEGIN_CFG
 Size
    27
 Supercell
         0.000000      5.415000      5.415000
         5.415000      0.000000      5.415000
         5.415000      5.415000      0.000000
 AtomData:  id type       cartes_x      cartes_y      cartes_z           fx          fy          fz
             1    0      -0.005418     -0.045708      0.017307    -1.447361    1.401400   -1.569074
             2    1       1.865586      1.665239     -0.070170    -1.576825    1.149744    1.754286
             3    2       3.636325      3.594680     -0.006451     0.117880   -0.051421   -0.546419
             4    2       1.747670      0.063877      1.880694     0.715213   -1.094328   -0.294446
             5    0       3.619732      1.846760      1.814156     0.650289   -1.855957   -0.938666
             6    1       5.364043      3.631159      1.746391     0.865972   -0.499273    1.057536
             7    2       3.696487     -0.000104      3.612697    -0.391358    0.140748    0.282456
             8    2       5.364494      1.866879      3.599123     0.618375   -1.228875    0.245727
             9    0       7.192844      3.606153      3.622911    -0.280638    0.750898   -1.216875
            10    1       0.022119      1.817492      1.839274    -0.688418   -0.109937   -0.632820
            11    2       1.984806      3.603700      1.774183    -1.492012    0.441472    0.328620
            12    2       3.525288      5.464766      1.887316     0.739031   -0.304213   -1.119833
            13    0       1.791734      1.759631      3.580953     0.351104    0.750317    1.880698
            14    1       3.649214      3.685434      3.646998    -0.345937   -0.406497   -0.060843
            15    2       5.346969      5.443733      3.617992     0.386448   -0.262324   -0.058820
            16    2       3.625168      1.840429      5.432042    -0.158225   -0.960638   -0.117413
            17    0       5.441542      3.610793      5.426036    -0.318749   -0.265932    0.508157
            18    1       7.297895      5.348586      5.413695     0.675081    1.785923    0.515062
            19    2      -0.028335      3.572096      3.606319     0.529403    0.392797    0.489033
            20    2       1.909378      5.334696      3.655568    -1.769833    0.032714   -1.125187
            21    0       3.546146      7.179557      3.627058     2.305750   -0.429631   -0.245600
            22    1       1.834662      3.644933      5.460801    -0.889864   -1.333579   -0.759398
            23    2       3.590539      5.392852      5.479268     0.918191    0.378645   -0.059750
            24    2       5.392792      7.116382      5.318447     0.188498    0.670498    0.939831
            25    0       3.558896      3.646974      7.226436     0.616861    0.313101    0.477449
            26    1       5.485197      5.406457      7.265638     0.562512    0.472736    0.776259
            27    2       7.255094      7.165820      7.246992    -0.881389    0.121611   -0.509970
 Energy
          8.261810753817
 PlusStress:  xx          yy          zz          yz          xz          xy
        81.24493    76.14616    81.57847    -0.46087    -3.90489    -0.79919
END_CFG

BEGIN_CFG
 Size
    27
 Supercell
         0.000000      5.415000      5.415000
         5.415000      0.000000      5.415000
         5.415000      5.415000      0.000000
 AtomData:  id type       cartes_x      cartes_y      cartes_z           fx          fy          fz
             1    0      -0.011779     -0.050883      0.015212    -1.319445    1.530334   -1.472806
             2    1       1.870408      1.641432     -0.074601    -1.804865    1.425154    1.865576
             3    2       3.644094      3.592863     -0.011862     0.021609   -0.181151   -0.619486
             4    2       1.743053      0.067675      1.894400     0.714370   -1.197647   -0.451522
             5    0       3.623749      1.849342      1.812376     0.624684   -1.953214   -0.838515
             6    1       5.358349      3.632990      1.739656     0.925960   -0.532012    1.206723
             7    2       3.711865      0.001462      3.617482    -0.548617    0.138900    0.176678
             8    2       5.359887      1.865286      3.599078     0.657578   -1.115240    0.294340
             9    0       7.186114      3.608609      3.621186    -0.221939    0.610776   -1.128673
            10    1       0.023674      1.817775      1.843746    -0.781617   -0.016940   -0.753901
            11    2       2.008881      3.608486      1.771750    -1.696201    0.304883    0.324338
            12    2       3.512334      5.471892      1.893718     1.019005   -0.355633   -1.206413
            13    0       1.789191      1.752080      3.580738     0.548351    0.953944    1.971186
            14    1       3.654830      3.701334      3.654131    -0.325744   -0.806897   -0.097187
            15    2       5.335141      5.448432      3.618887     0.576115   -0.359824   -0.086317
            16    2       3.626609      1.836009      5.434139    -0.140134   -0.819653   -0.115121
            17    0       5.445328      3.609928      5.429047    -0.237094   -0.207880    0.663921
            18    1       7.319896      5.346556      5.417685     0.382525    1.728363    0.377281
            19    2      -0.028508      3.569406      3.611381     0.526075    0.323084    0.426941
            20    2       1.914608      5.318392      3.652606    -1.917391    0.121907   -1.013712
            21    0       3.541012      7.168025      3.630835     2.302944   -0.100397   -0.421046
            22    1       1.835588      3.644840      5.465726    -0.937958   -1.386580   -0.824023
            23    2       3.594070      5.393253      5.490426     0.988602    0.305933   -0.039333
            24    2       5.389299      7.101562      5.306239     0.265326    0.754391    1.130201
            25    0       3.549681      3.656287      7.228605     0.858967    0.147495    0.588299
            26    1       5.503926      5.409062      7.281585     0.374739    0.285434    0.530586
            27    2       7.253271      7.152840      7.246977    -0.855843    0.402470   -0.488016
 Energy
          8.432233469286
 PlusStress:  xx          yy          zz          yz          xz          xy
        81.88089    76.46041    82.24773    -0.43709    -3.62867    -0.82980
END_CFG

BEGIN_CFG
 Size
    27
 Supercell
         0.000000      5.415000      5.415000
         5.415000      0.000000      5.415000
         5.415000      5.415000      0.000000
 AtomData:  id type       cartes_x      cartes_y      cartes_z           fx          fy          fz
             1    0      -0.019692     -0.054192      0.011363    -1.154467    1.573116   -1.312699
             2    1       1.871081      1.620725     -0.074728    -1.883184    1.621348    1.846578
             3    2       3.651987      3.590418     -0.019551    -0.085510   -0.304184   -0.637553
             4    2       1.741035      0.067062      1.906318     0.675284   -1.211090   -0.586764
             5    0       3.628494      1.849542      1.809580     0.557472   -1.972715   -0.713304
             6    1       5.354690      3.633709      1.735577     0.935375   -0.532702    1.288921
             7    2       3.725177      0.003609      3.623011    -0.696963    0.123588    0.041063
             8    2       5.357733      1.859442      3.600214     0.669138   -0.946050    0.336632
             9    0       7.179050      3.611844      3.618078    -0.150851    0.452821   -0.970770
            10    1       0.023618      1.817918      1.846499    -0.816147    0.042109   -0.796735
            11    2       2.026560      3.614367      1.770546    -1.801493    0.139956    0.310440
            12    2       3.503281      5.477544      1.895463     1.247972   -0.396852   -1.203745
            13    0       1.787330      1.745705      3.582903     0.695987    1.106056    1.948458
            14    1       3.659704      3.715439      3.661046    -0.313359   -1.153414   -0.137240
            15    2       5.325531      5.451735      3.619384     0.759079   -0.426266   -0.111943
            16    2       3.627561      1.828459      5.435744    -0.107603   -0.620078   -0.104438
            17    0       5.448829      3.608789      5.432855    -0.153925   -0.126014    0.772904
            18    1       7.342775      5.348459      5.422514     0.055465    1.572441    0.216722
            19    2      -0.026614      3.567951      3.618111     0.498340    0.234070    0.333308
            20    2       1.912562      5.302489      3.645947    -1.926139    0.243470   -0.827080
            21    0       3.538762      7.156304      3.634131     2.160624    0.176506   -0.532625
            22    1       1.834358      3.641693      5.468755    -0.926008   -1.360006   -0.857156
            23    2       3.601210      5.394818      5.501420     0.975197    0.221722   -0.058045
            24    2       5.386841      7.089612      5.298315     0.338987    0.814095    1.274662
            25    0       3.541528      3.665815      7.231441     1.073305   -0.023268    0.659051
            26    1       5.523496      5.412332      7.298731     0.126680    0.065920    0.252893
            27    2       7.248115      7.141384      7.245016    -0.753254    0.685420   -0.431535
 Energy
          8.515420709997
 PlusStress:  xx          yy          zz          yz          xz          xy
        82.26972    76.49300    82.64454    -0.44599    -3.28605    -0.72133
END_CFG

BEGIN_CFG
 Size
    27
 Supercell
         0.000000      5.415000      5.415000
         5.415000      0.000000      5.415000
         5.415000      5.415000      0.000000
 AtomData:  id type       cartes_x      cartes_y      cartes_z           fx          fy          fz
             1    0      -0.028960     -0.055580      0.005950    -0.964321    1.522760   -1.093342
             2    1       1.867434      1.603577     -0.070598    -1.799602    1.733258    1.703519
             3    2       3.659586      3.586871     -0.029592    -0.197127   -0.408689   -0.593468
             4    2       1.741485      0.061977      1.915956     0.599960   -1.123266   -0.688446
             5    0       3.633886      1.847338      1.805924     0.454316   -1.913830   -0.568452
             6    1       5.353085      3.633304      1.734352     0.892293   -0.502215    1.291682
             7    2       3.735844      0.006269      3.628753    -0.830169    0.095059   -0.118874
             8    2       5.358081      1.850005      3.602692     0.655277   -0.734400    0.369026
             9    0       7.171739      3.615665      3.613786    -0.070048    0.284259   -0.751060
            10    1       0.021870      1.818071      1.847443    -0.785838    0.063196   -0.759410
            11    2       2.037448      3.620719      1.770515    -1.803576   -0.044351    0.283644
            12    2       3.498988      5.481558      1.892564     1.403527   -0.426914   -1.102834
            13    0       1.786334      1.740688      3.587419     0.786223    1.197218    1.807785
            14    1       3.663875      3.726982      3.667661    -0.327118   -1.414556   -0.179166
            15    2       5.318842      5.453368      3.619392     0.922266   -0.454158   -0.126527
            16    2       3.628152      1.818553      5.436905    -0.060414   -0.369091   -0.087631
            17    0       5.452150      3.607484      5.437588    -0.074198   -0.028984    0.831030
            18    1       7.365793      5.353926      5.427813    -0.292903    1.326581    0.045686
            19    2      -0.022769      3.567388      3.626142     0.447392    0.130628    0.213233
            20    2       1.903216      5.287456      3.636285    -1.769540    0.383471   -0.573048
            21    0       3.539217      7.144744      3.636801     1.892965    0.380357   -0.573365
            22    1       1.831011      3.635542      5.469819    -0.855196   -1.259520   -0.853951
            23    2       3.611923      5.397218      5.512186     0.878772    0.137537   -0.115774
            24    2       5.385694      7.080761      5.295227     0.406321    0.844574    1.359517
            25    0       3.534698      3.675349      7.235034     1.253166   -0.195194    0.683363
            26    1       5.543343      5.415765      7.316447    -0.184723   -0.170832   -0.055795
            27    2       7.240025      7.132538      7.241335    -0.577702    0.947106   -0.347342
 Energy
          8.504883487619
 PlusStress:  xx          yy          zz          yz          xz          xy
        82.38767    76.23208    82.76601    -0.48998    -2.88167    -0.44633
END_CFG

BEGIN_CFG
 Size
    27
 Supercell
         0.000000      5.415000      5.415000
         5.415000      0.000000      5.415000
         5.415000      5.415000      0.000000
 AtomData:  id type       cartes_x      cartes_y      cartes_z           fx          fy          fz
             1    0      -0.039360     -0.055110     -0.000766    -0.760612    1.379221   -0.827038
             2    1       1.859672      1.590259     -0.062548    -1.560588    1.766316    1.457675
             3    2       3.666460      3.581812     -0.041828    -0.305488   -0.482941   -0.489254
             4    2       1.744137      0.052744      1.922958     0.493898   -0.936182   -0.753231
             5    0       3.639797      1.842801      1.801586     0.324890   -1.783841   -0.408676
             6    1       5.353433      3.631828      1.736003     0.797519   -0.444866    1.211602
             7    2       3.743341      0.009325      3.634082    -0.941070    0.055002   -0.293181
             8    2       5.360876      1.837794      3.606633     0.617853   -0.494581    0.386283
             9    0       7.164284      3.619865      3.608580     0.019854    0.110663   -0.481185
            10    1       0.018486      1.818298      1.846672    -0.697646    0.047708   -0.644184
            11    2       2.041543      3.626838      1.771555    -1.707860   -0.233332    0.243565
            12    2       3.500031      5.483831      1.885411     1.469558   -0.449090   -0.908209