BEGIN_CFG
 Size
    2
 AtomData:  id type       cartes_x      cartes_y      cartes_z           fx          fy          fz
             1    0       0.388362     -0.000000     -0.000000    -0.001361    0.000000    0.000000
             2    0      -0.388362      0.000000      0.000000     0.001361    0.000000    0.000000
 Energy
        -26.740246856243
 PlusStress:  xx          yy          zz          yz          xz          xy
        -0.00106     0.00000     0.00000     0.00000     0.00000     0.00000
END_CFG

BEGIN_CFG
 Size
    2
 AtomData:  id type       cartes_x      cartes_y      cartes_z           fx          fy          fz
             1    0       1.474026      5.312450     -1.627169    -0.178937   -0.420317    0.376213
             2    0       1.702476      5.849071     -2.107483     0.178937    0.420317   -0.376213
 Energy
        -26.734148670201
 PlusStress:  xx          yy          zz          yz          xz          xy
         0.04088     0.22555     0.18070    -0.20188    -0.08595     0.09602
END_CFG

BEGIN_CFG
 Size
    2
 AtomData:  id type       cartes_x      cartes_y      cartes_z           fx          fy          fz
             1    0      -1.760653      6.091512     -3.725743     0.045781   -0.152370   -0.223043
             2    0      -1.888737      6.517806     -3.101722    -0.045781    0.152370    0.223043
 Energy
        -26.738870683556
 PlusStress:  xx          yy          zz          yz          xz          xy
         0.00586     0.06495     0.13918     0.09508    -0.02857    -0.01952
END_CFG

BEGIN_CFG
 Size
    2
 AtomData:  id type       cartes_x      cartes_y      cartes_z           fx          fy          fz
             1    0       1.264859      6.447399      2.918265    -0.028203    0.495760    0.365455
             2    0       1.299383      5.840529      2.470903     0.028203   -0.495760   -0.365455
 Energy
        -26.733653760141
 PlusStress:  xx          yy          zz          yz          xz          xy
         0.00097     0.30086     0.16349     0.22178    -0.01262    -0.01712
END_CFG

BEGIN_CFG
 Size
    2
 AtomData:  id type       cartes_x      cartes_y      cartes_z           fx          fy          fz
             1    0      -1.462122      3.229215      4.975702     0.444592    0.530176   -0.912197
             2    0      -1.140522      3.612723      4.315855    -0.444592   -0.530176    0.912197
 Energy
        -26.709211412635
 PlusStress:  xx          yy          zz          yz          xz          xy
        -0.14298    -0.20333    -0.60191     0.34983     0.29336    -0.17050
END_CFG

BEGIN_CFG
 Size
    2
 AtomData:  id type       cartes_x      cartes_y      cartes_z           fx          fy          fz
             1    0       2.081150      4.042686      1.058001     1.445093    0.640622   -1.440745
             2    0       1.600221      3.829486      1.537483    -1.445093   -0.640622    1.440745
 Energy
        -26.676167547897
 PlusStress:  xx          yy          zz          yz          xz          xy
         0.69499     0.13658     0.69081    -0.30717    -0.69290     0.30809
END_CFG

BEGIN_CFG
 Size
    2
 AtomData:  id type       cartes_x      cartes_y      cartes_z           fx          fy          fz
             1    0       3.118380      4.391437      1.462239    -2.738156   -0.951629   -0.088749
             2    0       2.217696      4.078410      1.433046     2.738156    0.951629    0.088749
 Energy
        -26.442208640081
 PlusStress:  xx          yy          zz          yz          xz          xy
        -2.46621    -0.29789    -0.00259    -0.02778    -0.07994    -0.85712
END_CFG

BEGIN_CFG
 Size
    2
 AtomData:  id type       cartes_x      cartes_y      cartes_z           fx          fy          fz
             1    0      -1.472790      7.033115      4.004277    -1.908645   -2.222032   -0.734461
             2    0      -1.035556      7.542140      4.172528     1.908645    2.222032    0.734461
 Energy
        -26.624798328441
 PlusStress:  xx          yy          zz          yz          xz          xy
         0.83452     1.13107     0.12357     0.37386     0.32113     0.97155
END_CFG

BEGIN_CFG
 Size
    2
 AtomData:  id type       cartes_x      cartes_y      cartes_z           fx          fy          fz
             1    0      -0.225471      4.300783      4.341409     0.195014    0.004721   -0.290287
             2    0       0.215441      4.311456      3.685091    -0.195014   -0.004721    0.290287
 Energy
        -26.737748761531
 PlusStress:  xx          yy          zz          yz          xz          xy
        -0.08598    -0.00005    -0.19052     0.00310     0.12799    -0.00208
END_CFG

BEGIN_CFG
 Size
    2
 AtomData:  id type       cartes_x      cartes_y      cartes_z           fx          fy          fz
             1    0       0.697762      4.552799      2.854951    -0.165091    1.135987    0.550482
             2    0       0.589475      5.297921      3.216026     0.165091   -1.135987   -0.550482
 Energy
        -26.700918476171
 PlusStress:  xx          yy          zz          yz          xz          xy
        -0.01788    -0.84645    -0.19877    -0.41018     0.05961     0.12301
END_CFG

BEGIN_CFG
 Size
    2
 AtomData:  id type       cartes_x      cartes_y      cartes_z           fx          fy          fz
             1    0       0.247806      5.515333      2.436494     1.120470   -0.795991    0.576997
             2    0      -0.299788      5.904348      2.154505    -1.120470    0.795991   -0.576997
 Energy
        -26.706375319611
 PlusStress:  xx          yy          zz          yz          xz          xy
         0.61356     0.30965     0.16271    -0.22446     0.31596    -0.43588
END_CFG

BEGIN_CFG
 Size
    2
 AtomData:  id type       cartes_x      cartes_y      cartes_z           fx          fy          fz
             1    0      -1.040148      7.785676      2.572052     0.552544    0.344130    0.047861
             2    0      -0.359486      8.209599      2.631011    -0.552544   -0.344130   -0.047861
 Energy
        -26.731052686871
 PlusStress:  xx          yy          zz          yz          xz          xy
        -0.37610    -0.14588    -0.00282    -0.02029    -0.03258    -0.23424
END_CFG

BEGIN_CFG
 Size
    2
 AtomData:  id type       cartes_x      cartes_y      cartes_z           fx          fy          fz
             1    0       0.681354      7.588105      5.565223    -1.441173   -0.854929    2.056644
             2    0       0.176416      7.288567      6.285801     1.441173    0.854929   -2.056644
 Energy
        -26.510349381445
 PlusStress:  xx          yy          zz          yz          xz          xy
        -0.72770    -0.25608    -1.48197     0.61604     1.03848    -0.43169
END_CFG

BEGIN_CFG
 Size
    2
 AtomData:  id type       cartes_x      cartes_y      cartes_z           fx          fy          fz
             1    0       2.088060      8.304691      7.730366    -0.412137    0.799328   -2.379489
             2    0       1.939007      8.593775      6.869803     0.412137   -0.799328    2.379489
 Energy
        -26.535029420749
 PlusStress:  xx          yy          zz          yz          xz          xy
        -0.06143    -0.23107    -2.04770     0.68787    -0.35467     0.11914
END_CFG

BEGIN_CFG
 Size
    2
 AtomData:  id type       cartes_x      cartes_y      cartes_z           fx          fy          fz
             1    0       3.320472      9.891695      3.694510     0.573218    0.084169    0.495854
             2    0       3.928693      9.981004      4.220643    -0.573218   -0.084169   -0.495854
 Energy
        -26.727437941818
 PlusStress:  xx          yy          zz          yz          xz          xy
        -0.34864    -0.00752    -0.26089    -0.04428    -0.30159    -0.05119
END_CFG

BEGIN_CFG
 Size
    2
 AtomData:  id type       cartes_x      cartes_y      cartes_z           fx          fy          fz
             1    0       3.160252     11.633037      9.749455     0.036055   -0.026254    0.000495
             2    0       3.789464     11.174871      9.758096    -0.036055    0.026254   -0.000495
 Energy
        -26.740208389267
 PlusStress:  xx          yy          zz          yz          xz          xy
        -0.02269    -0.01203    -0.00000     0.00023    -0.00031     0.01652
END_CFG

BEGIN_CFG
 Size
    2
 AtomData:  id type       cartes_x      cartes_y      cartes_z           fx          fy          fz
             1    0       1.828040     10.106676     12.877009     0.030982    0.047896    0.114493
             2    0       1.641099      9.817674     12.186165    -0.030982   -0.047896   -0.114493
 Energy
        -26.739939450436
 PlusStress:  xx          yy          zz          yz          xz          xy
         0.00579     0.01384     0.07910     0.03309     0.02140     0.00895
END_CFG

BEGIN_CFG
 Size
    2
 AtomData:  id type       cartes_x      cartes_y      cartes_z           fx          fy          fz
             1    0      -0.199036     11.365494     14.121974    -0.100356    0.162161    0.481460
             2    0      -0.052137     11.128125     13.417221     0.100356   -0.162161   -0.481460
 Energy
        -26.735521966781
 PlusStress:  xx          yy          zz          yz          xz          xy
         0.01474     0.03849     0.33931     0.11428    -0.07073    -0.02382
END_CFG

BEGIN_CFG
 Size
    2
 AtomData:  id type       cartes_x      cartes_y      cartes_z           fx          fy          fz
             1    0      -3.638841     10.538988     16.052024    -0.385150    0.026399    0.546705
             2    0      -4.101987     10.570733     16.709442     0.385150   -0.026399   -0.546705
 Energy
        -26.730550318913
 PlusStress:  xx          yy          zz          yz          xz          xy
        -0.17838    -0.00084    -0.35941    -0.01736     0.25320     0.01223
END_CFG

BEGIN_CFG
 Size
    2
 AtomData:  id type       cartes_x      cartes_y      cartes_z           fx          fy          fz
             1    0      -3.799826     13.374588     19.627285    -0.579698   -1.056688   -1.428556
             2    0      -4.069813     12.882449     18.961953     0.579698    1.056688    1.428556
 Energy
        -26.644924697277
 PlusStress:  xx          yy          zz          yz          xz          xy
        -0.15651    -0.52004    -0.95046    -0.70305    -0.38569    -0.28529
END_CFG

BEGIN_CFG
 Size
    2
 AtomData:  id type       cartes_x      cartes_y      cartes_z           fx          fy          fz
             1    0      -4.404139     16.212205     19.989760    -0.464764   -0.297452   -2.775845
             2    0      -4.289862     16.285343     20.672290     0.464764    0.297452    2.775845
 Energy
        -26.636742140121
 PlusStress:  xx          yy          zz          yz          xz          xy
         0.05311     0.02176     1.89460     0.20302     0.31722     0.03399
END_CFG

