BEGIN_CFG
 Size
    32
 Supercell
         7.220000      0.000000      0.000000
         0.000000      7.220000      0.000000
         0.000000      0.000000      7.220000
 AtomData:  id type       cartes_x      cartes_y      cartes_z           fx          fy          fz
             1    0       0.000000      0.000000      0.000000     0.000000    0.000000    0.000000
             2    0       0.000000      1.805000      1.805000     0.000000   -0.000000   -0.000000
             3    0       1.805000      0.000000      1.805000    -0.000000    0.000000   -0.000000
             4    0       1.805000      1.805000      0.000000    -0.000000    0.000000    0.000000
             5    0       0.000000      0.000000      3.610000     0.000000    0.000000    0.000000
             6    0       0.000000      1.805000      5.415000     0.000000   -0.000000   -0.000000
             7    0       1.805000      0.000000      5.415000    -0.000000    0.000000   -0.000000
             8    0       1.805000      1.805000      3.610000    -0.000000   -0.000000   -0.000000
             9    0       0.000000      3.610000      0.000000     0.000000   -0.000000    0.000000
            10    0       0.000000      5.415000      1.805000     0.000000   -0.000000   -0.000000
            11    0       1.805000      3.610000      1.805000    -0.000000   -0.000000   -0.000000
            12    0       1.805000      5.415000      0.000000    -0.000000   -0.000000    0.000000
            13    0       0.000000      3.610000      3.610000     0.000000   -0.000000    0.000000
            14    0       0.000000      5.415000      5.415000     0.000000    0.000000   -0.000000
            15    0       1.805000      3.610000      5.415000    -0.000000   -0.000000   -0.000000
            16    0       1.805000      5.415000      3.610000    -0.000000   -0.000000    0.000000
            17    0       3.610000      0.000000      0.000000     0.000000    0.000000    0.000000
            18    0       3.610000      1.805000      1.805000    -0.000000   -0.000000   -0.000000
            19    0       5.415000      0.000000      1.805000    -0.000000    0.000000   -0.000000
            20    0       5.415000      1.805000      0.000000    -0.000000   -0.000000    0.000000
            21    0       3.610000      0.000000      3.610000     0.000000    0.000000    0.000000
            22    0       3.610000      1.805000      5.415000    -0.000000   -0.000000   -0.000000
            23    0       5.415000      0.000000      5.415000    -0.000000   -0.000000   -0.000000
            24    0       5.415000      1.805000      3.610000    -0.000000   -0.000000    0.000000
            25    0       3.610000      3.610000      0.000000    -0.000000   -0.000000    0.000000
            26    0       3.610000      5.415000      1.805000    -0.000000   -0.000000   -0.000000
            27    0       5.415000      3.610000      1.805000    -0.000000   -0.000000   -0.000000
            28    0       5.415000      5.415000      0.000000    -0.000000    0.000000    0.000000
            29    0       3.610000      3.610000      3.610000    -0.000000   -0.000000   -0.000000
            30    0       3.610000      5.415000      5.415000     0.000000    0.000000   -0.000000
            31    0       5.415000      3.610000      5.415000     0.000000   -0.000000   -0.000000
            32    0       5.415000      5.415000      3.610000    -0.000000    0.000000    0.000000
 Energy
         -0.181474181579
 PlusStress:  xx          yy          zz          yz          xz          xy
        -4.93717    -4.93717    -4.93717    -0.00000    -0.00000     0.00000
END_CFG

BEGIN_CFG
 Size
    32
 Supercell
         7.220000      0.000000      0.000000
         0.000000      7.220000      0.000000
         0.000000      0.000000      7.220000
 AtomData:  id type       cartes_x      cartes_y      cartes_z           fx          fy          fz
             1    0       0.005511     -0.018809      0.013573    -0.028790    0.090569   -0.172376
             2    0       0.017011      1.769714      1.781449    -0.083968    0.208225    0.209340
             3    0       1.807312     -0.005720      1.804696     0.056359    0.035420    0.032277
             4    0       1.789572      1.820905      0.014067     0.113114   -0.172636   -0.198158
             5    0       0.001194      0.020387      3.618455    -0.029369   -0.181965   -0.032285
             6    0      -0.015541      1.811669      5.397658     0.092516   -0.098710    0.172810
             7    0       1.820888     -0.000903      5.411657    -0.113763    0.148958    0.132781
             8    0       1.792685      1.827111      3.607205     0.127347   -0.145714    0.013569
             9    0      -0.007747      3.603631      0.009627     0.050823    0.098937   -0.011556
            10    0       0.006609      5.422465      1.812792    -0.025045   -0.092290    0.012597
            11    0       1.843734      3.602650      1.795736    -0.304033    0.071097    0.082101
            12    0       1.790282      5.426141      0.020419     0.142844   -0.089988   -0.115304
            13    0      -0.002061      3.594805      3.595088     0.078897    0.095363   -0.008256
            14    0       0.011767      5.428443      5.424823    -0.099717   -0.096741   -0.120232
            15    0       1.792964      3.614199      5.417110     0.023130    0.033481    0.022435
            16    0       1.808955      5.430761      3.614044    -0.107368   -0.157346   -0.039819
            17    0       3.622279      0.001222      0.005229    -0.147051    0.004406   -0.031767
            18    0       3.621417      1.778646      1.799218    -0.066247    0.159571    0.022184
            19    0       5.406493     -0.011555      1.800024     0.078346   -0.061680    0.084843
            20    0       5.442038      1.789341      0.017512    -0.161414    0.122464   -0.121468
            21    0       3.579564     -0.006057      3.612944     0.244286    0.058321    0.010550
            22    0       3.620602      1.817863      5.429348    -0.039641   -0.035078   -0.065960
            23    0       5.408693     -0.008362      5.430517     0.035362    0.019632   -0.170948
            24    0       5.411540      1.781928      3.589503    -0.065515    0.111070    0.098323
            25    0       3.593371      3.618992      0.002576     0.196719   -0.090917   -0.047818
            26    0       3.622488      5.407273      1.807867    -0.085258    0.076577   -0.048113
            27    0       5.426314      3.604405      1.813261    -0.086550   -0.090679   -0.119246
            28    0       5.403028      5.408434     -0.006904     0.116296   -0.046427    0.077426
            29    0       3.588372      3.618807      3.601510     0.167562   -0.116732    0.117701
            30    0       3.610226      5.423695      5.423076    -0.016371   -0.119820   -0.053877
            31    0       5.427034      3.608219      5.407344    -0.098309    0.008225    0.012226
            32    0       5.413558      5.384483      3.583828     0.034808    0.254406    0.256019
 Energy
         -0.114061691852
 PlusStress:  xx          yy          zz          yz          xz          xy
        -4.67631    -4.69276    -4.66205     0.04242     0.00014    -0.02829
END_CFG

BEGIN_CFG
 Size
    32
 Supercell
         7.220000      0.000000      0.000000
         0.000000      7.220000      0.000000
         0.000000      0.000000      7.220000
 AtomData:  id type       cartes_x      cartes_y      cartes_z           fx          fy          fz
             1    0       0.010913     -0.037275      0.026492    -0.075235    0.170342   -0.339259
             2    0       0.033703      1.735217      1.758693    -0.183194    0.408713    0.449271
             3    0       1.809838     -0.011305      1.804515     0.117629    0.069705    0.063542
             4    0       1.774573      1.836155      0.027383     0.242563   -0.333939   -0.404615
             5    0       0.002280      0.040084      3.626787    -0.038227   -0.359029   -0.068017
             6    0      -0.030732      1.817964      5.380971     0.174883   -0.177718    0.335964
             7    0       1.836343     -0.001241      5.408817    -0.231179    0.283589    0.268677
             8    0       1.780853      1.848668      3.604462     0.249807   -0.296962    0.023320
             9    0      -0.015299      3.597638      0.019211     0.098263    0.197740   -0.026961
            10    0       0.013123      5.429580      1.820631    -0.057844   -0.177683    0.035661
            11    0       1.881313      3.595569      1.786782    -0.605146    0.136524    0.163666
            12    0       1.776107      5.436939      0.040400     0.294881   -0.194535   -0.231659
            13    0      -0.003822      3.579971      3.580145     0.143360    0.185853   -0.012692
            14    0       0.023154      5.441518      5.434191    -0.189068   -0.183487   -0.224410
            15    0       1.781014      3.618525      5.419306     0.045259    0.060024    0.042328
            16    0       1.812503      5.445924      3.617936    -0.217034   -0.317054   -0.074189
            17    0       3.634001      0.002460      0.010337    -0.287513   -0.000705   -0.069922
            18    0       3.632582      1.752897      1.793520    -0.143251    0.321977    0.042907
            19    0       5.398283     -0.023343      1.795369     0.167035   -0.125864    0.162712
            20    0       5.468462      1.774145      0.034564    -0.315539    0.221412   -0.246543
            21    0       3.550056     -0.011892      3.615927     0.490697    0.134646    0.004397
            22    0       3.631054      1.830593      5.443447    -0.074324   -0.071626   -0.125611
            23    0       5.402519     -0.016649      5.445387     0.078795    0.056904   -0.320874
            24    0       5.407833      1.759278      3.569379    -0.120333    0.216454    0.198068
            25    0       3.577488      3.627639      0.004971     0.380463   -0.161735   -0.116771
            26    0       3.634652      5.399836      1.810552    -0.174850    0.154872   -0.099805
            27    0       5.437299      3.598467      1.821070    -0.176666   -0.186848   -0.248132
            28    0       5.391499      5.401692     -0.013514     0.230272   -0.091898    0.150930
            29    0       3.567380      3.627172      3.593466     0.332747   -0.217864    0.248493
            30    0       3.610389      5.431935      5.430948    -0.038070   -0.235852   -0.109168
            31    0       5.438695      3.606470      5.399735    -0.185883    0.029656    0.023918
            32    0       5.412248      5.354932      3.558626     0.066701    0.484391    0.504777
 Energy
          0.080410024019
 PlusStress:  xx          yy          zz          yz          xz          xy
        -3.92713    -3.99818    -3.86692     0.16703    -0.00122    -0.10367
END_CFG

BEGIN_CFG
 Size
    32
 Supercell
         7.220000      0.000000      0.000000
         0.000000      7.220000      0.000000
         0.000000      0.000000      7.220000
 AtomData:  id type       cartes_x      cartes_y      cartes_z           fx          fy          fz
             1    0       0.016029     -0.055095      0.038125    -0.136780    0.240179   -0.494895
             2    0       0.049697      1.702272      1.737646    -0.292726    0.596383    0.709466
             3    0       1.812808     -0.016626      1.804577     0.179061    0.101623    0.092205
             4    0       1.760496      1.850138      0.039165     0.382151   -0.476324   -0.610131
             5    0       0.003227      0.058418      3.634860    -0.029036   -0.525289   -0.105881
             6    0      -0.045261      1.823584      5.365560     0.246489   -0.236996    0.484691
             7    0       1.850920     -0.000503      5.406996    -0.348422    0.398181    0.400816
             8    0       1.769972      1.869095      3.601806     0.365262   -0.450086    0.031769
             9    0      -0.022477      3.592397      0.028691     0.142343    0.290790   -0.046103
            10    0       0.019418      5.436023      1.828604    -0.096341   -0.253839    0.065070
            11    0       1.916594      3.589008      1.778449    -0.895336    0.191587    0.242182
            12    0       1.763053      5.446996      0.059501     0.451217   -0.310864   -0.346991
            13    0      -0.005041      3.565842      3.565154     0.190433    0.269660   -0.010139
            14    0       0.033822      5.453896      5.442706    -0.266480   -0.259660   -0.312702
            15    0       1.769236      3.623079      5.421664     0.066391    0.077710    0.058546
            16    0       1.815228      5.459886      3.621546    -0.323452   -0.473390   -0.100808
            17    0       3.644635      0.003692      0.015179    -0.414384   -0.014895   -0.114084
            18    0       3.643200      1.728370      1.787983    -0.227647    0.482991    0.061307
            19    0       5.390706     -0.035610      1.791332     0.262010   -0.185984    0.229044
            20    0       5.493689      1.759785      0.050677    -0.462600    0.297964   -0.370825
            21    0       3.522413     -0.017214      3.618926     0.732987    0.222299   -0.015231
            22    0       3.641225      1.843050      5.457068    -0.104437   -0.109757   -0.178827
            23    0       5.396643     -0.024719      5.459040     0.126241    0.105471   -0.448324
            24    0       5.403671      1.737449      3.550006    -0.161450    0.315612    0.297791
            25    0       3.563049      3.635673      0.006924     0.549233   -0.215046   -0.203638
            26    0       3.646151      5.392985      1.812859    -0.265725    0.229002   -0.150583
            27    0       5.447610      3.591822      1.827936    -0.268412   -0.282315   -0.379283
            28    0       5.380845      5.394602     -0.019549     0.337758   -0.132036    0.217510
            29    0       3.547649      3.634711      3.586363     0.492052   -0.299813    0.386368
            30    0       3.610406      5.439280      5.438408    -0.064636   -0.342071   -0.163969
            31    0       5.449652      3.604836      5.392216    -0.260358    0.060921    0.035311
            32    0       5.411191      5.327220      3.535341     0.094595    0.687990    0.740337
 Energy
          0.378182064788
 PlusStress:  xx          yy          zz          yz          xz          xy
        -2.78735    -2.95205    -2.65072     0.36097    -0.00489    -0.21268
END_CFG

BEGIN_CFG
 Size
    32
 Supercell
         7.220000      0.000000      0.000000
         0.000000      7.220000      0.000000
         0.000000      0.000000      7.220000
 AtomData:  id type       cartes_x      cartes_y      cartes_z           fx          fy          fz
             1    0       0.020623     -0.072007      0.047884    -0.207957    0.302226   -0.631052
             2    0       0.064579      1.671592      1.719298    -0.404194    0.764738    0.970133
             3    0       1.816455     -0.021564      1.804991     0.234240    0.129675    0.115718
             4    0       1.747874      1.862317      0.048634     0.520963   -0.593116   -0.801265
             5    0       0.004075      0.074757      3.642531    -0.006462   -0.674894   -0.143588
             6    0      -0.058856      1.828305      5.351986     0.307710   -0.277474    0.613558
             7    0       1.864174      0.001744      5.406694    -0.459582    0.487561    0.519881
             8    0       1.760479      1.887812      3.599270     0.470589   -0.599738    0.041755
             9    0      -0.029115      3.588260      0.037995     0.183986    0.371801   -0.068316
            10    0       0.025347      5.441503      1.836821    -0.136953   -0.318129    0.094411
            11    0       1.948479      3.583175      1.771031    -1.163757    0.231707    0.313361
            12    0       1.751714      5.455870      0.077288     0.602866   -0.431920   -0.457671
            13    0      -0.005542      3.552738      3.550125     0.218767    0.344356    0.001545
            14    0       0.043476      5.465287      5.450035    -0.331247   -0.324447   -0.385170
            15    0       1.757707      3.627929      5.424246     0.086590    0.085192    0.069864
            16    0       1.816724      5.472053      3.624773    -0.418663   -0.617926   -0.117476
            17    0       3.653703      0.004863      0.019588    -0.520417   -0.037138   -0.162548
            18    0       3.652950      1.705674      1.782677    -0.314071    0.637663    0.076541
            19    0       5.384124     -0.048583      1.788163     0.357554   -0.233465    0.279601
            20    0       5.517156      1.746549      0.065379    -0.599946    0.352724   -0.487895
            21    0       3.497559     -0.021690      3.621866     0.960666    0.311207   -0.041781
            22    0       3.651000      1.855090      5.470010    -0.130310   -0.149540   -0.226296
            23    0       5.391246     -0.032387      5.470995     0.172686    0.157953   -0.552459
            24    0       5.398900      1.716819      3.531762    -0.186245    0.407414    0.396167
            25    0       3.550692      3.642894      0.008109     0.698863   -0.254585   -0.299644
            26    0       3.656640      5.386997      1.814594    -0.353874    0.291937   -0.194689
            27    0       5.456898      3.584109      1.833359    -0.359722   -0.367609   -0.501544
            28    0       5.371474      5.387015     -0.024758     0.434263   -0.162099    0.273919
            29    0       3.529782      3.641113      3.580722     0.640595   -0.360203    0.521980
            30    0       3.610177      5.445326      5.445248    -0.094739   -0.432400   -0.216808
            31    0       5.459622      3.603439      5.384832    -0.319943    0.097733    0.046576
            32    0       5.410494      5.302122      3.514867     0.117744    0.860795    0.953193
 Energy
          0.740507801328
 PlusStress:  xx          yy          zz          yz          xz          xy
        -1.41642    -1.70542    -1.18090     0.59646    -0.00793    -0.33428
END_CFG

BEGIN_CFG
 Size
    32
 Supercell
         7.220000      0.000000      0.000000
         0.000000      7.220000      0.000000
         0.000000      0.000000      7.220000
 AtomData:  id type       cartes_x      cartes_y      cartes_z           fx          fy          fz
             1    0       0.024425     -0.087779      0.055255    -0.279108    0.358087   -0.736873
             2    0       0.077924      1.643817      1.704640    -0.506026    0.907848    1.204345
             3    0       1.820985     -0.026016      1.805850     0.275571    0.152171    0.130798
             4    0       1.737237      1.872249      0.055064     0.643639   -0.679500   -0.960356
             5    0       0.004913      0.088534      3.649656     0.023434   -0.802109   -0.177871
             6    0      -0.071287      1.831974      5.340738     0.359556   -0.300704    0.716755
             7    0       1.875686      0.005841      5.408360    -0.556991    0.547010    0.614189
             8    0       1.752773      1.904251      3.596892     0.562100   -0.739948    0.056260
             9    0      -0.035056      3.585538      0.047034     0.224692    0.434360   -0.092520
            10    0       0.030760      5.445778      1.845392    -0.174730   -0.367978    0.115420
            11    0       1.975955      3.578226      1.764798    -1.394929    0.255091    0.370986
            12    0       1.742663      5.463099      0.093340     0.738600   -0.547781   -0.558693
            13    0      -0.005222      3.540942      3.535105     0.228310    0.406953    0.023424
            14    0       0.051867      5.475443      5.455902    -0.383292   -0.378260   -0.442751
            15    0       1.746506      3.633104      5.427096     0.105988    0.081639    0.075081
            16    0       1.816633      5.481882      3.627553    -0.491782   -0.739048   -0.122408
            17    0       3.660805      0.005886      0.023378    -0.598623   -0.065781   -0.212142
            18    0       3.661501      1.685392      1.777659    -0.396030    0.779360    0.086562
            19    0       5.378899     -0.062448      1.786054     0.445073   -0.260250    0.310963
            20    0       5.538340      1.734642      0.078219    -0.723472    0.387171   -0.590108
            21    0       3.476357     -0.024981      3.624646     1.158875    0.388313   -0.066353
            22    0       3.660283      1.866561      5.482091    -0.152271   -0.191091   -0.269156
            23    0       5.386505     -0.039454      5.480860     0.212734    0.206889   -0.632595
            24    0       5.393425      1.697736      3.515023    -0.192864    0.489467    0.491341
            25    0       3.540980      3.649156      0.008164     0.821397   -0.283615   -0.390557
            26    0       3.665784      5.382107      1.815590    -0.434543    0.336293   -0.225825
            27    0       5.464817      3.575007      1.836874    -0.448157   -0.430612   -0.600776
            28    0       5.363752      5.378816     -0.028927     0.515346   -0.177444    0.316829
            29    0       3.514338      3.646151      3.577056     0.772115   -0.398102    0.643129
            30    0       3.609587      5.449733      5.451269    -0.126169   -0.500241   -0.265546
            31    0       5.468381      3.602423      5.377624    -0.363323    0.135254    0.057962
            32    0       5.410247      5.280295      3.498012     0.134878    0.996557    1.130486
 Energy
          1.117228904230
 PlusStress:  xx          yy          zz          yz          xz          xy
        -0.01621    -0.44009     0.32964     0.83570    -0.00246    -0.45555
END_CFG

BEGIN_CFG
 Size
    32
 Supercell
         7.220000      0.000000      0.000000
         0.000000      7.220000      0.000000
         0.000000      0.000000      7.220000
 AtomData:  id type       cartes_x      cartes_y      cartes_z           fx          fy          fz
             1    0       0.027162     -0.102201      0.059838    -0.339149    0.409500   -0.801148
             2    0       0.089350      1.619495      1.694561    -0.585594    1.020350    1.381054
             3    0       1.826554     -0.029900      1.807212     0.295406    0.167315    0.134221
             4    0       1.729054      1.879609      0.057856     0.733087   -0.733426   -1.068295
             5    0       0.005859      0.099265      3.656109     0.054124   -0.901611   -0.204960
             6    0      -0.082358      1.834503      5.332204     0.402727   -0.308711    0.788426
             7    0       1.885088      0.012012      5.412347    -0.632498    0.572703    0.671303
             8    0       1.747205      1.917883      3.594728     0.636747   -0.863336    0.078013
             9    0      -0.040150      3.584470      0.055717     0.265827    0.472764   -0.117655
            10    0       0.035515      5.448656      1.854393    -0.204862   -0.400441    0.119205
            11    0       1.998157      3.574253      1.759964    -1.572438    0.261116    0.408287
            12    0       1.736416      5.468242      0.107278     0.845644   -0.646111   -0.644687
            13    0      -0.004050      3.530695      3.520181     0.220636    0.453118    0.056066
            14    0       0.058796      5.484157      5.460087    -0.423007   -0.421626   -0.485823
            15    0       1.735706      3.638589      5.430235     0.124833    0.066699    0.073216
            16    0       1.814676      5.488916      3.629869    -0.530896   -0.824288   -0.114900
            17    0       3.665647      0.006649      0.026364    -0.643150   -0.098502   -0.258473
            18    0       3.668543      1.668060      1.772967    -0.465658    0.900511    0.089944
            19    0       5.375361     -0.077309      1.785125     0.516073   -0.257915    0.321160
            20    0       5.556762      1.724191      0.088802    -0.827622    0.402633   -0.670614
            21    0       3.459560     -0.026795      3.627172     1.310170    0.440192   -0.079064
            22    0       3.668993      1.877307      5.493148    -0.170740   -0.234793   -0.308803
            23    0       5.382571     -0.045734      5.488331     0.241371    0.245695   -0.688211
            24    0       5.387219      1.680510      3.500151    -0.180177    0.559209    0.580991
            25    0       3.534371      3.654349      0.006751     0.907876   -0.305830   -0.459070
            26    0       3.673279      5.378476      1.815729    -0.502517    0.355635   -0.238077
            27    0       5.471031      3.564279      1.838100    -0.530706   -0.458734   -0.662210
            28    0       5.357987      5.369950     -0.031894     0.577071   -0.174334    0.343248
            29    0       3.501813      3.649680      3.575822     0.879651   -0.414190    0.736357
            30    0       3.608519      5.452242      5.456290    -0.156064   -0.540368   -0.308443
            31    0       5.475766      3.601931      5.370635    -0.389514    0.168474    0.069856
            32    0       5.410512      5.262255      3.485453     0.143350    1.088299    1.259089
 Energy
          1.454239440566
 PlusStress:  xx          yy          zz          yz          xz          xy
         1.20796     0.66709     1.66360     1.04094     0.02091    -0.56442
END_CFG

BEGIN_CFG
 Size
    32
 Supercell
         7.220000      0.000000      0.000000
         0.000000      7.220000      0.000000
         0.000000      0.000000      7.220000
 AtomData:  id type       cartes_x      cartes_y      cartes_z           fx          fy          fz
             1    0       0.028605     -0.115082      0.061392    -0.377215    0.456505   -0.814661
             2    0       0.098556      1.599049      1.689728    -0.632505    1.098165    1.472754
             3    0       1.833234     -0.033165      1.809093     0.287646    0.173599    0.123773
             4    0       1.723667      1.884195      0.056600     0.775154   -0.755412   -1.108935
             5    0       0.007032      0.106571      3.661788     0.079990   -0.968652   -0.221156
             6    0      -0.091907      1.835860      5.326653     0.437866   -0.303859    0.824122
             7    0       1.892096      0.020356      5.418869    -0.679581    0.562307    0.680662
             8    0       1.744060      1.928243      3.592860     0.690734   -0.962309    0.108434
             9    0      -0.044245      3.585205      0.063946     0.308129    0.482851   -0.142468
            10    0       0.039501      5.450013      1.863836    -0.223142   -0.413824    0.098007
            11    0       2.014422      3.571280      1.756668    -1.681688    0.251441    0.419951
            12    0       1.733378      5.470925      0.118775     0.911512   -0.714276   -0.710339
            13    0      -0.002059      3.522174      3.505478     0.198827    0.479085    0.098430
            14    0       0.064111      5.491266      5.462430    -0.451081   -0.455140   -0.514284
            15    0       1.725380      3.644328      5.433656     0.143499    0.040430    0.063708
            16    0       1.810705      5.492837      3.631747    -0.526160   -0.863699   -0.095805
            17    0       3.668064      0.007028      0.028370    -0.650184   -0.132414   -0.296462
            18    0       3.673810      1.654132      1.768613    -0.516109    0.994118    0.085470
            19    0       5.373782     -0.093160      1.785414     0.562955   -0.220528    0.310210
            20    0       5.572021      1.715252      0.096815    -0.906209    0.400891   -0.723750
            21    0       3.447743     -0.026933      3.629396     1.399517    0.455440   -0.071644
            22    0       3.677061      1.887164      5.503029    -0.185794   -0.280525   -0.346491
            23    0       5.379556     -0.051082      5.493199     0.254712    0.269430   -0.719302
            24    0       5.380329      1.665409      3.487489    -0.148200    0.614264    0.662130
            25    0       3.531189      3.658393      0.003615     0.949539   -0.324543   -0.487967
            26    0       3.678866      5.376170      1.814965    -0.553195    0.345782   -0.227797
            27    0       5.475228      3.551822      1.836802    -0.603644   -0.442417   -0.674311
            28    0       5.354410      5.360430     -0.033559     0.616392   -0.150301    0.351339
            29    0       3.492611      3.651638      3.577371     0.955947   -0.411181    0.789078
            30    0       3.606860      5.452701      5.460149    -0.181177   -0.549438   -0.343783
            31    0       5.481680      3.602093      5.363909    -0.397921    0.192606    0.082837
            32    0       5.411322      5.248353      3.477679     0.141385    1.131603    1.328247
 Energy
          1.704135203143
 PlusStress:  xx          yy          zz          yz          xz          xy
         2.08467     1.47070     2.63090     1.17997     0.06908    -0.65025
END_CFG

BEGIN_CFG
 Size
    32
 Supercell
         7.220000      0.000000      0.000000
         0.000000      7.220000      0.000000
         0.000000      0.000000      7.220000
 AtomData:  id type       cartes_x      cartes_y      cartes_z           fx          fy          fz
             1    0       0.028606     -0.126245      0.059868    -0.385072    0.497657   -0.773571
             2    0       0.105366      1.582773      1.690481    -0.642674    1.139684    1.462715
             3    0       1.840996     -0.035789      1.811456     0.249209    0.170187    0.099337