BEGIN_CFG
 Size
     2
 AtomData:  id type       cartes_x      cartes_y      cartes_z           fx          fy          fz
             1    0       0.047618     -0.000000     -0.000000    -0.000162   -0.000000    0.000000
             2    1      -0.884804      0.000000      0.000000     0.000162    0.000000   -0.000000
 Energy
       -142.121640355517
END_CFG

BEGIN_CFG
 Size
     2
 AtomData:  id type       cartes_x      cartes_y      cartes_z           fx          fy          fz
             1    0      -0.705528     -0.735631      0.663813    -0.597841    0.332785   -0.871774
             2    1      -1.222016     -0.448138     -0.089319     0.597841   -0.332785    0.871774
 Energy
       -142.107245616736
END_CFG

BEGIN_CFG
 Size
     2
 AtomData:  id type       cartes_x      cartes_y      cartes_z           fx          fy          fz
             1    0       0.452216     -0.396591      0.045269     2.395150    0.173532   -2.417273
             2    1       1.188305     -0.343261     -0.697618    -2.395150   -0.173532    2.417273
 Energy
       -141.888443717988
END_CFG

BEGIN_CFG
 Size
     2
 AtomData:  id type       cartes_x      cartes_y      cartes_z           fx          fy          fz
             1    0       0.736369     -0.685311      0.154520     1.892512   -0.998319   -0.477125
             2    1       1.590754     -1.136012     -0.060873    -1.892512    0.998319    0.477125
 Energy
       -142.053008954629
END_CFG

BEGIN_CFG
 Size
     2
 AtomData:  id type       cartes_x      cartes_y      cartes_z           fx          fy          fz
             1    0       1.340989     -1.151297      0.723919     0.340603    0.781586    0.422112
             2    1       1.013459     -1.902908      0.318014    -0.340603   -0.781586   -0.422112
 Energy
       -142.113511849402
END_CFG

BEGIN_CFG
 Size
     2
 AtomData:  id type       cartes_x      cartes_y      cartes_z           fx          fy          fz
             1    0       1.478810     -1.771776      0.668846    -1.538723    0.008810   -0.129178
             2    1       0.513058     -1.766245      0.587761     1.538723   -0.008810    0.129178
 Energy
       -142.091596138483
END_CFG

BEGIN_CFG
 Size
     2
 AtomData:  id type       cartes_x      cartes_y      cartes_z           fx          fy          fz
             1    0       2.381766     -2.430399     -0.010757    -0.098693    0.705036   -1.003422
             2    1       2.304713     -1.879940     -0.794171     0.098693   -0.705036    1.003422
 Energy
       -142.103549462746
END_CFG

BEGIN_CFG
 Size
     2
 AtomData:  id type       cartes_x      cartes_y      cartes_z           fx          fy          fz
             1    0       2.665253     -1.459371      0.864583     0.365978   -0.421882    0.128409
             2    1       3.268481     -2.154761      1.076252    -0.365978    0.421882   -0.128409
 Energy
       -142.118085135558
END_CFG

BEGIN_CFG
 Size
     2
 AtomData:  id type       cartes_x      cartes_y      cartes_z           fx          fy          fz
             1    0       2.714228     -1.570115      0.671301    -0.298271   -1.116428   -0.321264
             2    1       2.475549     -2.463465      0.414234     0.298271    1.116428    0.321264
 Energy
       -142.104532951847
END_CFG

BEGIN_CFG
 Size
     2
 AtomData:  id type       cartes_x      cartes_y      cartes_z           fx          fy          fz
             1    0       2.145116     -1.206788      1.531789    -0.977547    2.075393   -2.379259
             2    1       1.837336     -0.553352      0.782681     0.977547   -2.075393    2.379259
 Energy
       -141.910443583071
END_CFG

BEGIN_CFG
 Size
     2
 AtomData:  id type       cartes_x      cartes_y      cartes_z           fx          fy          fz
             1    0       2.251108     -1.407324      1.505717     0.528786    0.270549   -0.652046
             2    1       1.701935     -1.688309      2.182906    -0.528786   -0.270549    0.652046
 Energy
       -142.114600369502
END_CFG

BEGIN_CFG
 Size
     2
 AtomData:  id type       cartes_x      cartes_y      cartes_z           fx          fy          fz
             1    0       0.879369     -1.826707      1.459465     1.778189    1.525468    6.303465
             2    1       0.656092     -2.018249      0.667984    -1.778189   -1.525468   -6.303465
 Energy
       -141.864178857910
END_CFG

BEGIN_CFG
 Size
     2
 AtomData:  id type       cartes_x      cartes_y      cartes_z           fx          fy          fz
             1    0       0.635198     -2.003738      0.352333    -0.578046    0.688971    0.992885
             2    1       0.219466     -1.508219      1.066417     0.578046   -0.688971   -0.992885
 Energy
       -142.099803429735
END_CFG

BEGIN_CFG
 Size
     2
 AtomData:  id type       cartes_x      cartes_y      cartes_z           fx          fy          fz
             1    0       0.860419     -2.049810     -0.380085    -0.001310   -0.000096   -0.011367
             2    1       0.967902     -2.041677      0.545852     0.001310    0.000096    0.011367
 Energy
       -142.121639041500
END_CFG

BEGIN_CFG
 Size
     2
 AtomData:  id type       cartes_x      cartes_y      cartes_z           fx          fy          fz
             1    0       0.980361     -2.590884     -0.582982     0.502163   -0.601489   -0.309976
             2    1       1.547002     -3.269611     -0.932779    -0.502163    0.601489    0.309976
 Energy
       -142.113649282475
END_CFG

BEGIN_CFG
 Size
     2
 AtomData:  id type       cartes_x      cartes_y      cartes_z           fx          fy          fz
             1    0       1.128719     -3.808006     -0.583660     3.120033   -2.034474    1.109637
             2    1       0.427391     -3.350697     -0.833087    -3.120033    2.034474   -1.109637
 Energy
       -142.017507111549
END_CFG

BEGIN_CFG
 Size
     2
 AtomData:  id type       cartes_x      cartes_y      cartes_z           fx          fy          fz
             1    0       0.703395     -3.957362     -0.703419    -1.696067   -0.721250    0.376000
             2    1      -0.179621     -4.332858     -0.507664     1.696067    0.721250   -0.376000
 Energy
       -142.074205592813
END_CFG

BEGIN_CFG
 Size
     2
 AtomData:  id type       cartes_x      cartes_y      cartes_z           fx          fy          fz
             1    0       0.936339     -2.994272     -0.611753     1.515538    0.793175   -2.528976
             2    1       1.445791     -2.727645     -1.461873    -1.515538   -0.793175    2.528976
 Energy
       -141.955921132352
END_CFG

BEGIN_CFG
 Size
     2
 AtomData:  id type       cartes_x      cartes_y      cartes_z           fx          fy          fz
             1    0       0.956766     -3.546288     -0.391374     4.150085   -1.943397   -0.432112
             2    1       0.176409     -3.180865     -0.310123    -4.150085    1.943397    0.432112
 Energy
       -141.983093560210
END_CFG

BEGIN_CFG
 Size
     2
 AtomData:  id type       cartes_x      cartes_y      cartes_z           fx          fy          fz
             1    0       1.256892     -3.934494     -0.125723     1.035329   -1.439257   -0.288381
             2    1       0.737379     -3.212300      0.018970    -1.035329    1.439257    0.288381
 Energy
       -142.095051001951
END_CFG

BEGIN_CFG
 Size
     2
 AtomData:  id type       cartes_x      cartes_y      cartes_z           fx          fy          fz
             1    0       1.558962     -4.003930      0.080752    -1.726753   -1.860152    1.618534
             2    1       0.971509     -4.636765      0.631389     1.726753    1.860152   -1.618534
 Energy
       -141.962650771463
END_CFG

